 +-------------------------------------------------+
 |                                                 |
 |      CCC   AA    SSS  TTTTT  EEEEE  PPPP        |
 |     C     A  A  S       T    E      P   P       |
 |     C     AAAA   SS     T    EEE    PPPP        |
 |     C     A  A     S    T    E      P           |
 |      CCC  A  A  SSS     T    EEEEE  P           |
 |                                                 |
 +-------------------------------------------------+
 |                                                 |
 | Welcome to Academic Release CASTEP version 17.2 |          
 | Ab Initio Total Energy Program                  |
 |                                                 |
 | Authors:                                        |
 | M. Segall, M. Probert, C. Pickard, P. Hasnip,   |
 | S. Clark, K. Refson, J. R. Yates, M. Payne      |
 |                                                 |
 | Contributors:                                   |
 | P. Lindan, P. Haynes, J. White, V. Milman,      |
 | N. Govind, M. Gibson, P. Tulip, V. Cocula,      |
 | B. Montanari, D. Quigley, M. Glover,            |
 | L. Bernasconi, A. Perlov, M. Plummer,           |
 | E. McNellis, J. Meyer, J. Gale, D. Jochym       |
 | J. Aarons, B. Walker, R. Gillen, D. Jones       |
 | T. Green, I. J. Bush, C. J. Armstrong,          |
 | E. J. Higgins, E. L. Brown, M. S. McFly,        |
 | J. Wilkins, B-C. Shih, P. J. P. Byrne           |
 |                                                 |
 | Copyright (c) 2000 - 2017                       |
 |                                                 |
 |     Distributed under the terms of an           |
 |     Agreement between the United Kingdom        |
 |     Car-Parrinello (UKCP) Consortium,           |
 |     Daresbury Laboratory and Accelrys, Inc.     |
 |                                                 |
 | Please cite                                     |
 |                                                 |
 |     "First principles methods using CASTEP"     |
 |                                                 |
 |         Zeitschrift fuer Kristallographie       |
 |           220(5-6) pp. 567-570 (2005)           |
 |                                                 |
 | S. J. Clark, M. D. Segall, C. J. Pickard,       |
 | P. J. Hasnip, M. J. Probert, K. Refson,         |
 | M. C. Payne                                     |
 |                                                 |
 |       in all publications arising from          |
 |              your use of CASTEP                 |
 |                                                 |
 +-------------------------------------------------+
 
 
 Compiled for linux_x86_64_ifort17 on Thu, 28 Feb 2019 10:59:43 +0000
 from code version 
 4947bf343853+ Castep172_branch Tue, 28 Feb 2017 17:24:36 +0000
 Compiler: Intel Fortran 17.0.7.259; Optimisation: intermediate
 MATHLIBS: Intel MKL(2017.0.4) (LAPACK version 3.7.0)
 FFT Lib : mkl
 Fundamental constants values: CODATA 2010
 
 Run started: Sun, 27 Oct 2019 16:42:40 +0000
 
 Atomic calculation performed for Zr: 1s2 2s2 2p6 3s2 3p6 3d10 4s2 4p6 4d2 5s2
 
 Converged in 74 iterations to an ae energy of -97813.878 eV
 
 Warning: ion_atom_descreen_psp: negative charge density encountered
   ============================================================                
   | Pseudopotential Report - Date of generation 27-10-2019   |                
   ------------------------------------------------------------                
   | Element: Zr Ionic charge: 12.00 Level of theory: LDA     |                
   | Atomic Solver: Koelling-Harmon                           |                
   |                                                          |                
   |               Reference Electronic Structure             |                
   |         Orbital         Occupation         Energy        |                
   |            4s              2.000           -2.003        |                
   |            4p              6.000           -1.194        |                
   |            5s              2.000           -0.169        |                
   |            4d              2.000           -0.137        |                
   |                                                          |                
   |                 Pseudopotential Definition               |                
   |        Beta     l      e      Rc     scheme   norm       |                
   |          1      0   -2.003   2.105     qc      0         |                
   |          2      0   -0.169   2.105     qc      0         |                
   |          3      0    0.250   2.105     qc      0         |                
   |          4      1   -1.194   2.105     qc      0         |                
   |          5      1    0.250   2.105     qc      0         |                
   |          6      2   -0.137   2.105     qc      0         |                
   |          7      2    0.250   2.105     qc      0         |                
   |         loc     3    0.000   2.105     pn      0         |                
   |                                                          |                
   | Augmentation charge Rinner = 1.471                       |                
   | Partial core correction Rc = 1.471                       |                
   ------------------------------------------------------------                
   | "3|2.1|7|8|9|40U:50:41:42"                               |                
   ------------------------------------------------------------                
   |      Author: Chris J. Pickard, Cambridge University      |                
   ============================================================                
 
 Pseudo atomic calculation performed for Zr 4s2 4p6 4d2 5s2
 
 Converged in 24 iterations to a total energy of -1287.0756 eV
 
 Calculation parallelised over 2 processes.
 Data is distributed by k-point(2-way)

 ************************************ Title ************************************
 

 ***************************** General Parameters ******************************
  
 output verbosity                               : normal  (1)
 write checkpoint data to                       : sim.check
 type of calculation                            : geometry optimization
 stress calculation                             : off
 density difference calculation                 : off
 electron localisation func (ELF) calculation   : off
 Hirshfeld analysis                             : off
 unlimited duration calculation
 timing information                             : on
 memory usage estimate                          : on
 write final potential to formatted file        : off
 write final density to formatted file          : off
 write BibTeX reference list                    : on
 write OTFG pseudopotential files               : on
 write electrostatic potential file             : on
 write bands file                               : on
 checkpoint writing                             : both castep_bin and check files
 random number generator seed                   : randomised (164240678)

 *********************** Exchange-Correlation Parameters ***********************
  
 using functional                               : Local Density Approximation
 DFT+D: Semi-empirical dispersion correction    : off

 ************************* Pseudopotential Parameters **************************
  
 pseudopotential representation                 : reciprocal space
 <beta|phi> representation                      : reciprocal space
 spin-orbit coupling                            : off

 **************************** Basis Set Parameters *****************************
  
 basis set accuracy                             : FINE
 finite basis set correction                    : none

 **************************** Electronic Parameters ****************************
  
 number of  electrons                           :  192.0    
 net charge of system                           :  0.000    
 treating system as non-spin-polarized
 number of bands                                :        115

 ********************* Electronic Minimization Parameters **********************
  
 Method: Treating system as metallic with density mixing treatment of electrons,
         and number of  SD  steps               :          1
         and number of  CG  steps               :          4
  
 total energy / atom convergence tol.           : 0.1000E-04   eV
 eigen-energy convergence tolerance             : 0.1000E-05   eV
 max force / atom convergence tol.              : ignored
 periodic dipole correction                     : NONE

 ************************** Density Mixing Parameters **************************
  
 density-mixing scheme                          : Broyden
 max. length of mixing history                  :         20

 *********************** Population Analysis Parameters ************************
  
 Population analysis with cutoff                :  3.000       A

 ********************** Geometry Optimization Parameters ***********************
  
 optimization method                            : BFGS
 variable cell method                           : fixed basis quality
 max. number of steps                           :         30
 estimated bulk modulus                         :  500.0       GPa
 estimated <frequency>                          :  1668.       cm-1
 total energy convergence tolerance             : 0.2000E-04   eV/atom
        max ionic |force| tolerance             : 0.5000E-01   eV/A
 max ionic |displacement| tolerance             : 0.1000E-02   A
   max |stress component| tolerance             : 0.1000       GPa
 convergence tolerance window                   :          2   steps
 backup results every                           :          5   steps
 write geom trajectory file                     : on

 *******************************************************************************
  
 
                           -------------------------------
                                      Unit Cell
                           -------------------------------
        Real Lattice(A)                      Reciprocal Lattice(1/A)
   6.4632000   0.0000000   0.0000000        0.9721477   0.5612698  -0.0000000
  -3.2316000   5.5972954   0.0000000        0.0000000   1.1225395  -0.0000000
   0.0000000   0.0000000  10.2950000        0.0000000   0.0000000   0.6103143
 
                       Lattice parameters(A)       Cell Angles
                    a =    6.463200          alpha =   90.000000
                    b =    6.463200          beta  =   90.000000
                    c =   10.295000          gamma =  120.000000
 
                       Current cell volume =  372.436445       A**3
                                   density =    3.919015   AMU/A**3
                                           =    6.507677     g/cm^3
 
                           -------------------------------
                                     Cell Contents
                           -------------------------------
                         Total number of ions in cell =   16
                      Total number of species in cell =    1
                        Max number of any one species =   16
 
            xxxxxxxxxxxxxxxxxxxxxxxxxxxxxxxxxxxxxxxxxxxxxxxxxxxxxxxxxxxx
            x  Element    Atom        Fractional coordinates of atoms  x
            x            Number           u          v          w      x
            x----------------------------------------------------------x
            x  Zr           1         0.353673   0.170017   0.398212   x 
            x  Zr           2         0.190062   0.353429   0.134022   x 
            x  Zr           3         0.385628   0.216298   0.884955   x 
            x  Zr           4         0.188943   0.374475   0.641159   x 
            x  Zr           5         0.878017   0.167017   0.380419   x 
            x  Zr           6         0.698885   0.368323   0.128969   x 
            x  Zr           7         0.853232   0.204890   0.904036   x 
            x  Zr           8         0.708673   0.340190   0.627584   x 
            x  Zr           9         0.379416   0.709590   0.383958   x 
            x  Zr          10         0.190034   0.868776   0.145946   x 
            x  Zr          11         0.404021   0.715415   0.888038   x 
            x  Zr          12         0.228425   0.874351   0.643438   x 
            x  Zr          13         0.852281   0.690182   0.398001   x 
            x  Zr          14         0.701673   0.882415   0.126887   x 
            x  Zr          15         0.889788   0.705243   0.877360   x 
            x  Zr          16         0.686545   0.833851   0.632693   x 
            xxxxxxxxxxxxxxxxxxxxxxxxxxxxxxxxxxxxxxxxxxxxxxxxxxxxxxxxxxxx
 
 
                         No user defined ionic velocities
 
                           -------------------------------
                                   Details of Species
                           -------------------------------
 
                               Mass of species in AMU
                                    Zr   91.2240000
 
                          Electric Quadrupole Moment (Barn)
                                    Zr   -0.1760000 Isotope 91
 
                          Files used for pseudopotentials:
                                    Zr 3|2.1|7|8|9|40U:50:41:42
 
                           -------------------------------
                              k-Points For BZ Sampling
                           -------------------------------
                       MP grid size for SCF calculation is  2  2  1
                            with an offset of   0.000  0.000  0.000
                       Number of kpoints used =             2
 
                           -------------------------------
                               Symmetry and Constraints
                           -------------------------------
 
                      Maximum deviation from symmetry = 0.208724E-30     ANG
 
                      Number of symmetry operations   =           1
                      Number of ionic constraints     =           3
                      Point group of crystal =     1: C1, 1, 1
                      Space group of crystal =     1: P1, P 1
 
             Set iprint > 1 for details on symmetry rotations/translations
 
                         Centre of mass is constrained
             Set iprint > 1 for details of linear ionic constraints
 
                         Number of cell constraints= 6
                         Cell constraints are:  0 0 0 0 0 0
 
                         External pressure/stress (GPa)
                          0.00000   0.00000   0.00000
                                    0.00000   0.00000
                                              0.00000
  
+---------------- MEMORY AND SCRATCH DISK ESTIMATES PER PROCESS --------------+
|                                                     Memory          Disk    |
| Baseline code, static data and system overhead      352.0 MB         0.0 MB |
| BLAS internal memory storage                          0.0 MB         0.0 MB |
| Model and support data                               50.1 MB        64.0 MB |
| Electronic energy minimisation requirements          41.9 MB         0.0 MB |
| Force calculation requirements                        6.3 MB         0.0 MB |
|                                               ----------------------------- |
| Approx. total storage required per process          444.0 MB        64.0 MB |
|                                                                             |
| Requirements will fluctuate during execution and may exceed these estimates |
+-----------------------------------------------------------------------------+
Calculating total energy with cut-off of  244.902 eV.
------------------------------------------------------------------------ <-- SCF
SCF loop      Energy           Fermi           Energy gain       Timer   <-- SCF
                               energy          per atom          (sec)   <-- SCF
------------------------------------------------------------------------ <-- SCF
Initial  -1.72205580E+004  0.00000000E+000                        11.80  <-- SCF
      1  -2.01912773E+004  1.19972776E+001   1.85669952E+002      15.09  <-- SCF
      2  -2.06978943E+004  1.00480360E+001   3.16635630E+001      17.60  <-- SCF
      3  -2.07249199E+004  9.87198828E+000   1.68910217E+000      20.44  <-- SCF
      4  -2.07244740E+004  9.67485197E+000  -2.78664650E-002      23.17  <-- SCF
      5  -2.07242063E+004  9.67998782E+000  -1.67353306E-002      26.40  <-- SCF
      6  -2.07240134E+004  9.67900537E+000  -1.20565966E-002      29.15  <-- SCF
      7  -2.07240338E+004  9.67163098E+000   1.27936384E-003      32.01  <-- SCF
      8  -2.07240047E+004  9.67486300E+000  -1.82430280E-003      34.69  <-- SCF
      9  -2.07240057E+004  9.67407507E+000   6.31283914E-005      37.03  <-- SCF
     10  -2.07240047E+004  9.67420053E+000  -6.03014522E-005      39.30  <-- SCF
     11  -2.07240047E+004  9.67421521E+000   1.06863050E-006      41.04  <-- SCF
     12  -2.07240047E+004  9.67420816E+000  -1.22043616E-006      42.73  <-- SCF
------------------------------------------------------------------------ <-- SCF
 
Final energy, E             =  -20723.67329297     eV
Final free energy (E-TS)    =  -20724.00470241     eV
(energies not corrected for finite basis set)
 
NB est. 0K energy (E-0.5TS)      =  -20723.83899769     eV
 

Writing analysis data to sim.castep_bin

Writing model to sim.check
 
+---------------- MEMORY AND SCRATCH DISK ESTIMATES PER PROCESS --------------+
|                                                     Memory          Disk    |
| Model and support data                               59.1 MB        64.0 MB |
| Electronic energy minimisation requirements          41.9 MB         0.0 MB |
| Geometry minimisation requirements                   48.8 MB         0.0 MB |
|                                               ----------------------------- |
| Approx. total storage required per process          149.8 MB        64.0 MB |
|                                                                             |
| Requirements will fluctuate during execution and may exceed these estimates |
+-----------------------------------------------------------------------------+
 
 
 ******************************** Constrained Forces ********************************
 *                                                                                  *
 *                           Cartesian components (eV/A)                            *
 * -------------------------------------------------------------------------------- *
 *                         x                    y                    z              *
 *                                                                                  *
 * Zr              1      0.09747              0.60257             -0.42204         *
 * Zr              2      0.31917              0.48563              0.49399         *
 * Zr              3     -0.44488              0.09022              0.12182         *
 * Zr              4      0.56146             -0.37988              0.17811         *
 * Zr              5     -0.72683              0.57971              0.26940         *
 * Zr              6     -0.44756              0.13047              0.63069         *
 * Zr              7      0.68284              0.33547             -2.01664         *
 * Zr              8     -0.39869             -0.16633              0.30137         *
 * Zr              9     -0.53829             -0.77067              0.19972         *
 * Zr             10      0.28181             -0.11855             -0.49786         *
 * Zr             11     -0.55383             -0.31184              0.06505         *
 * Zr             12     -0.25251             -0.37877              0.30997         *
 * Zr             13      0.61395             -0.12437             -0.99824         *
 * Zr             14      0.24765             -0.64545              0.64367         *
 * Zr             15     -0.02586              0.11224              0.42791         *
 * Zr             16      0.58411              0.55956              0.29310         *
 *                                                                                  *
 ************************************************************************************
 BFGS: finished iteration     0 with enthalpy= -2.07240047E+004 eV
  
 +-----------+-----------------+-----------------+------------+-----+ <-- BFGS
 | Parameter |      value      |    tolerance    |    units   | OK? | <-- BFGS
 +-----------+-----------------+-----------------+------------+-----+ <-- BFGS
 |  dE/ion   |   0.000000E+000 |   2.000000E-005 |         eV | No  | <-- BFGS
 |  |F|max   |   2.155380E+000 |   5.000000E-002 |       eV/A | No  | <-- BFGS
 |  |dR|max  |   0.000000E+000 |   1.000000E-003 |          A | No  | <-- BFGS
 +-----------+-----------------+-----------------+------------+-----+ <-- BFGS
  

================================================================================
 Starting BFGS iteration          1 ...
================================================================================
  
 +------------+-------------+-------------+-----------------+ <-- min BFGS
 |    Step    |   lambda    |   F.delta'  |    enthalpy     | <-- min BFGS
 +------------+-------------+-------------+-----------------+ <-- min BFGS
 |  previous  |    0.000000 |    0.939728 |   -20724.004702 | <-- min BFGS
 +------------+-------------+-------------+-----------------+ <-- min BFGS
  

--------------------------------------------------------------------------------
 BFGS: starting iteration         1 with trial guess (lambda=  1.000000)
--------------------------------------------------------------------------------
 
                           -------------------------------
                                     Cell Contents
                           -------------------------------
 
            xxxxxxxxxxxxxxxxxxxxxxxxxxxxxxxxxxxxxxxxxxxxxxxxxxxxxxxxxxxxxxxxx
            x  Element         Atom        Fractional coordinates of atoms  x
            x                 Number           u          v          w      x
            x---------------------------------------------------------------x
            x  Zr                1         0.353747   0.170132   0.398168   x
            x  Zr                2         0.190162   0.353522   0.134074   x
            x  Zr                3         0.385563   0.216315   0.884967   x
            x  Zr                4         0.189000   0.374402   0.641177   x
            x  Zr                5         0.877952   0.167128   0.380447   x
            x  Zr                6         0.698823   0.368348   0.129035   x
            x  Zr                7         0.853377   0.204954   0.903826   x
            x  Zr                8         0.708591   0.340158   0.627616   x
            x  Zr                9         0.379253   0.709442   0.383979   x
            x  Zr               10         0.190070   0.868754   0.145894   x
            x  Zr               11         0.403900   0.715355   0.888045   x
            x  Zr               12         0.228347   0.874279   0.643470   x
            x  Zr               13         0.852371   0.690158   0.397897   x
            x  Zr               14         0.701653   0.882291   0.126954   x
            x  Zr               15         0.889795   0.705264   0.877404   x
            x  Zr               16         0.686696   0.833958   0.632724   x
            xxxxxxxxxxxxxxxxxxxxxxxxxxxxxxxxxxxxxxxxxxxxxxxxxxxxxxxxxxxxxxxxx
 
 
------------------------------------------------------------------------ <-- SCF
SCF loop      Energy           Fermi           Energy gain       Timer   <-- SCF
                               energy          per atom          (sec)   <-- SCF
------------------------------------------------------------------------ <-- SCF
Initial  -2.07236461E+004  0.00000000E+000                        45.04  <-- SCF
      1  -2.07240190E+004  9.67496477E+000   2.33060472E-002      47.44  <-- SCF
      2  -2.07240191E+004  9.67496415E+000   5.83283181E-006      49.39  <-- SCF
      3  -2.07240191E+004  9.67476302E+000   1.77926075E-007      51.10  <-- SCF
      4  -2.07240191E+004  9.67478903E+000  -7.17922777E-007      52.72  <-- SCF
------------------------------------------------------------------------ <-- SCF
 
Final energy, E             =  -20723.68882547     eV
Final free energy (E-TS)    =  -20724.01911171     eV
(energies not corrected for finite basis set)
 
NB est. 0K energy (E-0.5TS)      =  -20723.85396859     eV
 
 
 ******************************** Constrained Forces ********************************
 *                                                                                  *
 *                           Cartesian components (eV/A)                            *
 * -------------------------------------------------------------------------------- *
 *                         x                    y                    z              *
 *                                                                                  *
 * Zr              1      0.09431              0.59434             -0.41306         *
 * Zr              2      0.31329              0.47957              0.48939         *
 * Zr              3     -0.43905              0.08638              0.11872         *
 * Zr              4      0.55338             -0.37827              0.17584         *
 * Zr              5     -0.71934              0.56951              0.26622         *
 * Zr              6     -0.43675              0.12906              0.62035         *
 * Zr              7      0.67466              0.32955             -1.99213         *
 * Zr              8     -0.39064             -0.16208              0.29548         *
 * Zr              9     -0.52955             -0.75894              0.20006         *
 * Zr             10      0.27919             -0.11683             -0.48413         *
 * Zr             11     -0.54619             -0.30435              0.06411         *
 * Zr             12     -0.24965             -0.37251              0.30242         *
 * Zr             13      0.60193             -0.12050             -0.97689         *
 * Zr             14      0.24388             -0.63908              0.62909         *
 * Zr             15     -0.02803              0.11247              0.41689         *
 * Zr             16      0.57857              0.55169              0.28765         *
 *                                                                                  *
 ************************************************************************************
  
 +------------+-------------+-------------+-----------------+ <-- min BFGS
 |    Step    |   lambda    |   F.delta'  |    enthalpy     | <-- min BFGS
 +------------+-------------+-------------+-----------------+ <-- min BFGS
 |  previous  |    0.000000 |    0.939728 |   -20724.004702 | <-- min BFGS
 | trial step |    1.000000 |    0.925648 |   -20724.019112 | <-- min BFGS
 +------------+-------------+-------------+-----------------+ <-- min BFGS
  

--------------------------------------------------------------------------------
 BFGS: improving iteration         1 with line minimization (lambda= 66.742502)
--------------------------------------------------------------------------------
 
                           -------------------------------
                                     Cell Contents
                           -------------------------------
 
            xxxxxxxxxxxxxxxxxxxxxxxxxxxxxxxxxxxxxxxxxxxxxxxxxxxxxxxxxxxxxxxxx
            x  Element         Atom        Fractional coordinates of atoms  x
            x                 Number           u          v          w      x
            x---------------------------------------------------------------x
            x  Zr                1         0.358601   0.177717   0.395280   x
            x  Zr                2         0.196697   0.359634   0.137454   x
            x  Zr                3         0.381282   0.217451   0.885801   x
            x  Zr                4         0.192729   0.369621   0.642396   x
            x  Zr                5         0.873678   0.174425   0.382291   x
            x  Zr                6         0.694766   0.369990   0.133351   x
            x  Zr                7         0.862932   0.209177   0.890025   x
            x  Zr                8         0.703198   0.338064   0.629678   x
            x  Zr                9         0.368535   0.699742   0.385346   x
            x  Zr               10         0.192395   0.867261   0.142487   x
            x  Zr               11         0.395900   0.711430   0.888490   x
            x  Zr               12         0.223211   0.869511   0.645591   x
            x  Zr               13         0.858281   0.688593   0.391065   x
            x  Zr               14         0.700290   0.874167   0.131359   x
            x  Zr               15         0.890219   0.706677   0.880332   x
            x  Zr               16         0.696584   0.841001   0.634730   x
            xxxxxxxxxxxxxxxxxxxxxxxxxxxxxxxxxxxxxxxxxxxxxxxxxxxxxxxxxxxxxxxxx
 
 
------------------------------------------------------------------------ <-- SCF
SCF loop      Energy           Fermi           Energy gain       Timer   <-- SCF
                               energy          per atom          (sec)   <-- SCF
------------------------------------------------------------------------ <-- SCF
Initial  -2.07270159E+004  0.00000000E+000                        54.48  <-- SCF
      1  -2.07241784E+004  9.72463828E+000  -1.77346214E-001      56.84  <-- SCF
      2  -2.07248443E+004  9.71607191E+000   4.16192786E-002      60.03  <-- SCF
      3  -2.07248524E+004  9.70866510E+000   5.04504721E-004      62.74  <-- SCF
      4  -2.07246853E+004  9.71049326E+000  -1.04384396E-002      65.33  <-- SCF
      5  -2.07246782E+004  9.70947322E+000  -4.48321070E-004      67.99  <-- SCF
      6  -2.07246758E+004  9.71131652E+000  -1.47117216E-004      70.62  <-- SCF
      7  -2.07246726E+004  9.71033996E+000  -2.01031687E-004      72.95  <-- SCF
      8  -2.07246726E+004  9.71052025E+000   1.12037907E-006      75.19  <-- SCF
      9  -2.07246724E+004  9.71052498E+000  -1.06901084E-005      77.21  <-- SCF
     10  -2.07246724E+004  9.71050190E+000  -1.52282996E-006      78.86  <-- SCF
     11  -2.07246724E+004  9.71049531E+000   9.53372357E-007      80.62  <-- SCF
------------------------------------------------------------------------ <-- SCF
 
Final energy, E             =  -20724.39286038     eV
Final free energy (E-TS)    =  -20724.67243478     eV
(energies not corrected for finite basis set)
 
NB est. 0K energy (E-0.5TS)      =  -20724.53264758     eV
 
 
 ******************************** Constrained Forces ********************************
 *                                                                                  *
 *                           Cartesian components (eV/A)                            *
 * -------------------------------------------------------------------------------- *
 *                         x                    y                    z              *
 *                                                                                  *
 * Zr              1     -0.07093              0.36670             -0.18872         *
 * Zr              2      0.02650              0.28121              0.30734         *
 * Zr              3     -0.24667             -0.00284              0.15947         *
 * Zr              4      0.55671             -0.32718             -0.00787         *
 * Zr              5     -0.53444              0.14814              0.02044         *
 * Zr              6      0.00176             -0.04522              0.13073         *
 * Zr              7      0.31155              0.07354             -0.46508         *
 * Zr              8     -0.12661              0.11610              0.01285         *
 * Zr              9     -0.25449             -0.30819              0.32891         *
 * Zr             10      0.30772             -0.02825             -0.14279         *
 * Zr             11     -0.37008              0.03871              0.13775         *
 * Zr             12     -0.13404             -0.35679             -0.12410         *
 * Zr             13      0.13849              0.07487             -0.27490         *
 * Zr             14      0.14923             -0.36178             -0.09613         *
 * Zr             15     -0.20037              0.13215              0.14528         *
 * Zr             16      0.44567              0.19884              0.05681         *
 *                                                                                  *
 ************************************************************************************
  
 +------------+-------------+-------------+-----------------+ <-- min BFGS
 |    Step    |   lambda    |   F.delta'  |    enthalpy     | <-- min BFGS
 +------------+-------------+-------------+-----------------+ <-- min BFGS
 |  previous  |    0.000000 |    0.939728 |   -20724.004702 | <-- min BFGS
 | trial step |    1.000000 |    0.925648 |   -20724.019112 | <-- min BFGS
 |  line step |   66.742502 |    0.339603 |   -20724.672435 | <-- min BFGS
 +------------+-------------+-------------+-----------------+ <-- min BFGS
  

--------------------------------------------------------------------------------
 BFGS: improving iteration         1 with quad minimization (lambda=104.839032)
--------------------------------------------------------------------------------
 
                           -------------------------------
                                     Cell Contents
                           -------------------------------
 
            xxxxxxxxxxxxxxxxxxxxxxxxxxxxxxxxxxxxxxxxxxxxxxxxxxxxxxxxxxxxxxxxx
            x  Element         Atom        Fractional coordinates of atoms  x
            x                 Number           u          v          w      x
            x---------------------------------------------------------------x
            x  Zr                1         0.361415   0.182112   0.393606   x
            x  Zr                2         0.200484   0.363176   0.139413   x
            x  Zr                3         0.378800   0.218109   0.886284   x
            x  Zr                4         0.194891   0.366850   0.643103   x
            x  Zr                5         0.871201   0.178653   0.383359   x
            x  Zr                6         0.692415   0.370942   0.135852   x
            x  Zr                7         0.868469   0.211624   0.882028   x
            x  Zr                8         0.700073   0.336851   0.630873   x
            x  Zr                9         0.362324   0.694121   0.386138   x
            x  Zr               10         0.193743   0.866397   0.140513   x
            x  Zr               11         0.391264   0.709156   0.888748   x
            x  Zr               12         0.220234   0.866749   0.646820   x
            x  Zr               13         0.861705   0.687685   0.387107   x
            x  Zr               14         0.699501   0.869459   0.133911   x
            x  Zr               15         0.890465   0.707495   0.882029   x
            x  Zr               16         0.702315   0.845082   0.635892   x
            xxxxxxxxxxxxxxxxxxxxxxxxxxxxxxxxxxxxxxxxxxxxxxxxxxxxxxxxxxxxxxxxx
 
 
------------------------------------------------------------------------ <-- SCF
SCF loop      Energy           Fermi           Energy gain       Timer   <-- SCF
                               energy          per atom          (sec)   <-- SCF
------------------------------------------------------------------------ <-- SCF
Initial  -2.07257612E+004  0.00000000E+000                        82.90  <-- SCF
      1  -2.07246454E+004  9.72668894E+000  -6.97378777E-002      85.21  <-- SCF
      2  -2.07248448E+004  9.72439434E+000   1.24651488E-002      88.51  <-- SCF
      3  -2.07248361E+004  9.72471657E+000  -5.46227614E-004      91.22  <-- SCF
      4  -2.07247963E+004  9.72451629E+000  -2.48552101E-003      93.82  <-- SCF
      5  -2.07247927E+004  9.72428165E+000  -2.22612183E-004      96.42  <-- SCF
      6  -2.07247924E+004  9.72475579E+000  -2.06677406E-005      98.78  <-- SCF
      7  -2.07247914E+004  9.72450130E+000  -6.25647101E-005     101.33  <-- SCF
      8  -2.07247914E+004  9.72455498E+000  -1.98937897E-006     103.30  <-- SCF
      9  -2.07247914E+004  9.72455974E+000  -1.51719868E-006     104.93  <-- SCF
------------------------------------------------------------------------ <-- SCF
 
Final energy, E             =  -20724.51602830     eV
Final free energy (E-TS)    =  -20724.79135613     eV
(energies not corrected for finite basis set)
 
NB est. 0K energy (E-0.5TS)      =  -20724.65369221     eV
 
 
 ******************************** Constrained Forces ********************************
 *                                                                                  *
 *                           Cartesian components (eV/A)                            *
 * -------------------------------------------------------------------------------- *
 *                         x                    y                    z              *
 *                                                                                  *
 * Zr              1     -0.14695              0.23976             -0.00597         *
 * Zr              2     -0.14838              0.10311              0.21082         *
 * Zr              3     -0.09755             -0.05362              0.19318         *
 * Zr              4      0.52337             -0.22501             -0.14310         *
 * Zr              5     -0.35925             -0.03633             -0.05860         *
 * Zr              6      0.19274             -0.12852             -0.03797         *
 * Zr              7      0.05501             -0.08406             -0.03227         *
 * Zr              8      0.04972              0.28456             -0.12695         *
 * Zr              9     -0.02677              0.00362              0.43907         *
 * Zr             10      0.27704              0.03343              0.04930         *
 * Zr             11     -0.24041              0.21148              0.18017         *
 * Zr             12     -0.08824             -0.35489             -0.35231         *
 * Zr             13     -0.09735              0.07413             -0.02402         *
 * Zr             14      0.06654             -0.13224             -0.26439         *
 * Zr             15     -0.26914              0.11745              0.02526         *
 * Zr             16      0.30963             -0.05286             -0.05223         *
 *                                                                                  *
 ************************************************************************************
  
 +------------+-------------+-------------+-----------------+ <-- min BFGS
 |    Step    |   lambda    |   F.delta'  |    enthalpy     | <-- min BFGS
 +------------+-------------+-------------+-----------------+ <-- min BFGS
 |  previous  |    0.000000 |    0.939728 |   -20724.004702 | <-- min BFGS
 | trial step |    1.000000 |    0.925648 |   -20724.019112 | <-- min BFGS
 |  line step |   66.742502 |    0.339603 |   -20724.672435 | <-- min BFGS
 |  quad step |  104.839032 |    0.073058 |   -20724.791356 | <-- min BFGS
 +------------+-------------+-------------+-----------------+ <-- min BFGS
  
 BFGS: finished iteration     1 with enthalpy= -2.07247914E+004 eV
  
 +-----------+-----------------+-----------------+------------+-----+ <-- BFGS
 | Parameter |      value      |    tolerance    |    units   | OK? | <-- BFGS
 +-----------+-----------------+-----------------+------------+-----+ <-- BFGS
 |  dE/ion   |   4.916586E-002 |   2.000000E-005 |         eV | No  | <-- BFGS
 |  |F|max   |   5.873900E-001 |   5.000000E-002 |       eV/A | No  | <-- BFGS
 |  |dR|max  |   2.421583E-001 |   1.000000E-003 |          A | No  | <-- BFGS
 +-----------+-----------------+-----------------+------------+-----+ <-- BFGS
  

================================================================================
 Starting BFGS iteration          2 ...
================================================================================
  
 +------------+-------------+-------------+-----------------+ <-- min BFGS
 |    Step    |   lambda    |   F.delta'  |    enthalpy     | <-- min BFGS
 +------------+-------------+-------------+-----------------+ <-- min BFGS
 |  previous  |    0.000000 |    0.087417 |   -20724.791356 | <-- min BFGS
 +------------+-------------+-------------+-----------------+ <-- min BFGS
  

--------------------------------------------------------------------------------
 BFGS: starting iteration         2 with trial guess (lambda=  1.000000)
--------------------------------------------------------------------------------
 
                           -------------------------------
                                     Cell Contents
                           -------------------------------
 
            xxxxxxxxxxxxxxxxxxxxxxxxxxxxxxxxxxxxxxxxxxxxxxxxxxxxxxxxxxxxxxxxx
            x  Element         Atom        Fractional coordinates of atoms  x
            x                 Number           u          v          w      x
            x---------------------------------------------------------------x
            x  Zr                1         0.362071   0.183189   0.393215   x
            x  Zr                2         0.201354   0.364026   0.139895   x
            x  Zr                3         0.378197   0.218251   0.886419   x
            x  Zr                4         0.195466   0.366156   0.643251   x
            x  Zr                5         0.870553   0.179634   0.383602   x
            x  Zr                6         0.691886   0.371138   0.136432   x
            x  Zr                7         0.869764   0.212178   0.880155   x
            x  Zr                8         0.699381   0.336627   0.631138   x
            x  Zr                9         0.360868   0.692807   0.386373   x
            x  Zr               10         0.194111   0.866202   0.140057   x
            x  Zr               11         0.390160   0.708668   0.888829   x
            x  Zr               12         0.219486   0.866029   0.647068   x
            x  Zr               13         0.862496   0.687489   0.386179   x
            x  Zr               14         0.699314   0.868331   0.134478   x
            x  Zr               15         0.890487   0.707711   0.882429   x
            x  Zr               16         0.703704   0.846025   0.636158   x
            xxxxxxxxxxxxxxxxxxxxxxxxxxxxxxxxxxxxxxxxxxxxxxxxxxxxxxxxxxxxxxxxx
 
 
------------------------------------------------------------------------ <-- SCF
SCF loop      Energy           Fermi           Energy gain       Timer   <-- SCF
                               energy          per atom          (sec)   <-- SCF
------------------------------------------------------------------------ <-- SCF
Initial  -2.07246076E+004  0.00000000E+000                       106.92  <-- SCF
      1  -2.07247911E+004  9.72681519E+000   1.14645038E-002     109.24  <-- SCF
      2  -2.07248018E+004  9.72669929E+000   6.69257639E-004     112.40  <-- SCF
      3  -2.07248011E+004  9.72708269E+000  -3.98527290E-005     115.03  <-- SCF
      4  -2.07247993E+004  9.72694432E+000  -1.17278174E-004     117.53  <-- SCF
      5  -2.07247991E+004  9.72689168E+000  -1.33804568E-005     119.66  <-- SCF
      6  -2.07247990E+004  9.72697917E+000  -1.69476126E-006     121.39  <-- SCF
      7  -2.07247990E+004  9.72694642E+000  -1.77909041E-006     122.99  <-- SCF
------------------------------------------------------------------------ <-- SCF
 
Final energy, E             =  -20724.52185515     eV
Final free energy (E-TS)    =  -20724.79900021     eV
(energies not corrected for finite basis set)
 
NB est. 0K energy (E-0.5TS)      =  -20724.66042768     eV
 
 
 ******************************** Constrained Forces ********************************
 *                                                                                  *
 *                           Cartesian components (eV/A)                            *
 * -------------------------------------------------------------------------------- *
 *                         x                    y                    z              *
 *                                                                                  *
 * Zr              1     -0.16124              0.20602              0.03588         *
 * Zr              2     -0.19116              0.05066              0.17805         *
 * Zr              3     -0.05750             -0.06418              0.19816         *
 * Zr              4      0.50274             -0.18623             -0.18218         *
 * Zr              5     -0.32588             -0.06815             -0.07594         *
 * Zr              6      0.23541             -0.15237             -0.08218         *
 * Zr              7      0.00247             -0.13760              0.10641         *
 * Zr              8      0.08751              0.31546             -0.15727         *
 * Zr              9      0.02385              0.07229              0.46236         *
 * Zr             10      0.26917              0.05255              0.08438         *
 * Zr             11     -0.20952              0.24929              0.18187         *
 * Zr             12     -0.07448             -0.35069             -0.40093         *
 * Zr             13     -0.14115              0.07817              0.01585         *
 * Zr             14      0.04775             -0.07023             -0.28091         *
 * Zr             15     -0.28289              0.11234             -0.00214         *
 * Zr             16      0.27494             -0.10733             -0.08142         *
 *                                                                                  *
 ************************************************************************************
  
 +------------+-------------+-------------+-----------------+ <-- min BFGS
 |    Step    |   lambda    |   F.delta'  |    enthalpy     | <-- min BFGS
 +------------+-------------+-------------+-----------------+ <-- min BFGS
 |  previous  |    0.000000 |    0.087417 |   -20724.791356 | <-- min BFGS
 | trial step |    1.000000 |    0.022380 |   -20724.799000 | <-- min BFGS
 +------------+-------------+-------------+-----------------+ <-- min BFGS
  
 BFGS: finished iteration     2 with enthalpy= -2.07247990E+004 eV
  
 +-----------+-----------------+-----------------+------------+-----+ <-- BFGS
 | Parameter |      value      |    tolerance    |    units   | OK? | <-- BFGS
 +-----------+-----------------+-----------------+------------+-----+ <-- BFGS
 |  dE/ion   |   4.777547E-004 |   2.000000E-005 |         eV | No  | <-- BFGS
 |  |F|max   |   5.662322E-001 |   5.000000E-002 |       eV/A | No  | <-- BFGS
 |  |dR|max  |   2.060704E-002 |   1.000000E-003 |          A | No  | <-- BFGS
 +-----------+-----------------+-----------------+------------+-----+ <-- BFGS
  

================================================================================
 Starting BFGS iteration          3 ...
================================================================================
  
 +------------+-------------+-------------+-----------------+ <-- min BFGS
 |    Step    |   lambda    |   F.delta'  |    enthalpy     | <-- min BFGS
 +------------+-------------+-------------+-----------------+ <-- min BFGS
 |  previous  |    0.000000 |    0.070559 |   -20724.799000 | <-- min BFGS
 +------------+-------------+-------------+-----------------+ <-- min BFGS
  

--------------------------------------------------------------------------------
 BFGS: starting iteration         3 with trial guess (lambda=  1.000000)
--------------------------------------------------------------------------------
 
                           -------------------------------
                                     Cell Contents
                           -------------------------------
 
            xxxxxxxxxxxxxxxxxxxxxxxxxxxxxxxxxxxxxxxxxxxxxxxxxxxxxxxxxxxxxxxxx
            x  Element         Atom        Fractional coordinates of atoms  x
            x                 Number           u          v          w      x
            x---------------------------------------------------------------x
            x  Zr                1         0.362296   0.183620   0.393080   x
            x  Zr                2         0.201630   0.364339   0.140089   x
            x  Zr                3         0.377964   0.218287   0.886491   x
            x  Zr                4         0.195750   0.365866   0.643281   x
            x  Zr                5         0.870250   0.179968   0.383679   x
            x  Zr                6         0.691727   0.371172   0.136629   x
            x  Zr                7         0.870209   0.212343   0.879502   x
            x  Zr                8         0.699188   0.336619   0.631213   x
            x  Zr                9         0.360363   0.692357   0.386514   x
            x  Zr               10         0.194302   0.866144   0.139905   x
            x  Zr               11         0.389753   0.708552   0.888880   x
            x  Zr               12         0.219164   0.865692   0.647106   x
            x  Zr               13         0.862758   0.687437   0.385850   x
            x  Zr               14         0.699250   0.867914   0.134646   x
            x  Zr               15         0.890451   0.707814   0.882571   x
            x  Zr               16         0.704241   0.846336   0.636242   x
            xxxxxxxxxxxxxxxxxxxxxxxxxxxxxxxxxxxxxxxxxxxxxxxxxxxxxxxxxxxxxxxxx
 
 
------------------------------------------------------------------------ <-- SCF
SCF loop      Energy           Fermi           Energy gain       Timer   <-- SCF
                               energy          per atom          (sec)   <-- SCF
------------------------------------------------------------------------ <-- SCF
Initial  -2.07245370E+004  0.00000000E+000                       124.82  <-- SCF
      1  -2.07248009E+004  9.72785654E+000   1.64938963E-002     127.13  <-- SCF
      2  -2.07248024E+004  9.72784050E+000   8.90743778E-005     130.15  <-- SCF
      3  -2.07248023E+004  9.72798030E+000  -5.23643516E-006     132.57  <-- SCF
      4  -2.07248021E+004  9.72791976E+000  -1.38044647E-005     134.62  <-- SCF
      5  -2.07248020E+004  9.72790666E+000  -1.19191242E-006     136.19  <-- SCF
      6  -2.07248020E+004  9.72793028E+000  -5.90809272E-008     137.77  <-- SCF
------------------------------------------------------------------------ <-- SCF
 
Final energy, E             =  -20724.52422942     eV
Final free energy (E-TS)    =  -20724.80203314     eV
(energies not corrected for finite basis set)
 
NB est. 0K energy (E-0.5TS)      =  -20724.66313128     eV
 
 
 ******************************** Constrained Forces ********************************
 *                                                                                  *
 *                           Cartesian components (eV/A)                            *
 * -------------------------------------------------------------------------------- *
 *                         x                    y                    z              *
 *                                                                                  *
 * Zr              1     -0.16631              0.19704              0.05082         *
 * Zr              2     -0.20516              0.03328              0.16539         *
 * Zr              3     -0.04499             -0.06493              0.19527         *
 * Zr              4      0.48797             -0.16857             -0.19318         *
 * Zr              5     -0.31267             -0.07526             -0.08298         *
 * Zr              6      0.25147             -0.15631             -0.09796         *
 * Zr              7     -0.01447             -0.15322              0.16219         *
 * Zr              8      0.10287              0.32531             -0.16812         *
 * Zr              9      0.04105              0.09226              0.46805         *
 * Zr             10      0.26435              0.05449              0.09637         *
 * Zr             11     -0.19873              0.25810              0.17986         *
 * Zr             12     -0.06910             -0.34971             -0.41293         *
 * Zr             13     -0.15544              0.07780              0.02913         *
 * Zr             14      0.04239             -0.05117             -0.28483         *
 * Zr             15     -0.28643              0.10860             -0.01451         *
 * Zr             16      0.26319             -0.12771             -0.09257         *
 *                                                                                  *
 ************************************************************************************
  
 +------------+-------------+-------------+-----------------+ <-- min BFGS
 |    Step    |   lambda    |   F.delta'  |    enthalpy     | <-- min BFGS
 +------------+-------------+-------------+-----------------+ <-- min BFGS
 |  previous  |    0.000000 |    0.070559 |   -20724.799000 | <-- min BFGS
 | trial step |    1.000000 |    0.047995 |   -20724.802033 | <-- min BFGS
 +------------+-------------+-------------+-----------------+ <-- min BFGS
  

--------------------------------------------------------------------------------
 BFGS: improving iteration         3 with line minimization (lambda=  3.126955)
--------------------------------------------------------------------------------
 
                           -------------------------------
                                     Cell Contents
                           -------------------------------
 
            xxxxxxxxxxxxxxxxxxxxxxxxxxxxxxxxxxxxxxxxxxxxxxxxxxxxxxxxxxxxxxxxx
            x  Element         Atom        Fractional coordinates of atoms  x
            x                 Number           u          v          w      x
            x---------------------------------------------------------------x
            x  Zr                1         0.362775   0.184536   0.392793   x
            x  Zr                2         0.202219   0.365006   0.140500   x
            x  Zr                3         0.377468   0.218364   0.886646   x
            x  Zr                4         0.196354   0.365251   0.643345   x
            x  Zr                5         0.869606   0.180678   0.383843   x
            x  Zr                6         0.691389   0.371245   0.137046   x
            x  Zr                7         0.871157   0.212694   0.878111   x
            x  Zr                8         0.698779   0.336603   0.631372   x
            x  Zr                9         0.359289   0.691399   0.386815   x
            x  Zr               10         0.194708   0.866023   0.139582   x
            x  Zr               11         0.388889   0.708304   0.888989   x
            x  Zr               12         0.218480   0.864976   0.647187   x
            x  Zr               13         0.863317   0.687325   0.385150   x
            x  Zr               14         0.699112   0.867027   0.135002   x
            x  Zr               15         0.890374   0.708032   0.882873   x
            x  Zr               16         0.705382   0.846997   0.636422   x
            xxxxxxxxxxxxxxxxxxxxxxxxxxxxxxxxxxxxxxxxxxxxxxxxxxxxxxxxxxxxxxxxx
 
 
------------------------------------------------------------------------ <-- SCF
SCF loop      Energy           Fermi           Energy gain       Timer   <-- SCF
                               energy          per atom          (sec)   <-- SCF
------------------------------------------------------------------------ <-- SCF
Initial  -2.07245890E+004  0.00000000E+000                       139.84  <-- SCF
      1  -2.07247994E+004  9.72963458E+000   1.31490959E-002     142.17  <-- SCF
      2  -2.07248059E+004  9.72956329E+000   4.02225121E-004     145.38  <-- SCF
      3  -2.07248055E+004  9.72992433E+000  -2.49663040E-005     147.98  <-- SCF
      4  -2.07248045E+004  9.72980646E+000  -5.67683175E-005     150.16  <-- SCF
      5  -2.07248044E+004  9.72977561E+000  -7.86799281E-006     152.19  <-- SCF
      6  -2.07248044E+004  9.72982509E+000  -3.06051566E-007     153.91  <-- SCF
------------------------------------------------------------------------ <-- SCF
 
Final energy, E             =  -20724.52471539     eV
Final free energy (E-TS)    =  -20724.80441167     eV
(energies not corrected for finite basis set)
 
NB est. 0K energy (E-0.5TS)      =  -20724.66456353     eV
 
 
 ******************************** Constrained Forces ********************************
 *                                                                                  *
 *                           Cartesian components (eV/A)                            *
 * -------------------------------------------------------------------------------- *
 *                         x                    y                    z              *
 *                                                                                  *
 * Zr              1     -0.17574              0.17057              0.08028         *
 * Zr              2     -0.23346             -0.01074              0.13313         *
 * Zr              3     -0.01368             -0.06953              0.19250         *
 * Zr              4      0.45691             -0.12870             -0.22024         *
 * Zr              5     -0.28762             -0.09131             -0.09951         *
 * Zr              6      0.28390             -0.17233             -0.13683         *
 * Zr              7     -0.05441             -0.18613              0.30584         *
 * Zr              8      0.13179              0.33890             -0.19071         *
 * Zr              9      0.07587              0.13776              0.47893         *
 * Zr             10      0.25465              0.06676              0.11956         *
 * Zr             11     -0.17664              0.27987              0.17342         *
 * Zr             12     -0.05397             -0.34333             -0.43947         *
 * Zr             13     -0.18324              0.08061              0.05469         *
 * Zr             14      0.03074             -0.00377             -0.29367         *
 * Zr             15     -0.29297              0.10000             -0.03904         *
 * Zr             16      0.23786             -0.16862             -0.11887         *
 *                                                                                  *
 ************************************************************************************
  
 +------------+-------------+-------------+-----------------+ <-- min BFGS
 |    Step    |   lambda    |   F.delta'  |    enthalpy     | <-- min BFGS
 +------------+-------------+-------------+-----------------+ <-- min BFGS
 |  previous  |    0.000000 |    0.070559 |   -20724.799000 | <-- min BFGS
 | trial step |    1.000000 |    0.047995 |   -20724.802033 | <-- min BFGS
 |  line step |    3.126955 |   -0.004790 |   -20724.804412 | <-- min BFGS
 +------------+-------------+-------------+-----------------+ <-- min BFGS
  
 BFGS: finished iteration     3 with enthalpy= -2.07248044E+004 eV
  
 +-----------+-----------------+-----------------+------------+-----+ <-- BFGS
 | Parameter |      value      |    tolerance    |    units   | OK? | <-- BFGS
 +-----------+-----------------+-----------------+------------+-----+ <-- BFGS
 |  dE/ion   |   3.382162E-004 |   2.000000E-005 |         eV | No  | <-- BFGS
 |  |F|max   |   5.602864E-001 |   5.000000E-002 |       eV/A | No  | <-- BFGS
 |  |dR|max  |   2.246849E-002 |   1.000000E-003 |          A | No  | <-- BFGS
 +-----------+-----------------+-----------------+------------+-----+ <-- BFGS
  

================================================================================
 Starting BFGS iteration          4 ...
================================================================================
  
 +------------+-------------+-------------+-----------------+ <-- min BFGS
 |    Step    |   lambda    |   F.delta'  |    enthalpy     | <-- min BFGS
 +------------+-------------+-------------+-----------------+ <-- min BFGS
 |  previous  |    0.000000 |    0.373905 |   -20724.804412 | <-- min BFGS
 +------------+-------------+-------------+-----------------+ <-- min BFGS
  

--------------------------------------------------------------------------------
 BFGS: starting iteration         4 with trial guess (lambda=  1.000000)
--------------------------------------------------------------------------------
 
                           -------------------------------
                                     Cell Contents
                           -------------------------------
 
            xxxxxxxxxxxxxxxxxxxxxxxxxxxxxxxxxxxxxxxxxxxxxxxxxxxxxxxxxxxxxxxxx
            x  Element         Atom        Fractional coordinates of atoms  x
            x                 Number           u          v          w      x
            x---------------------------------------------------------------x
            x  Zr                1         0.362716   0.184622   0.392827   x
            x  Zr                2         0.202076   0.364994   0.140541   x
            x  Zr                3         0.377444   0.218314   0.886712   x
            x  Zr                4         0.196557   0.365163   0.643269   x
            x  Zr                5         0.869424   0.180584   0.383802   x
            x  Zr                6         0.691505   0.371131   0.136985   x
            x  Zr                7         0.871044   0.212571   0.878252   x
            x  Zr                8         0.698975   0.336830   0.631299   x
            x  Zr                9         0.359403   0.691515   0.386975   x
            x  Zr               10         0.194866   0.866068   0.139637   x
            x  Zr               11         0.388906   0.708499   0.889052   x
            x  Zr               12         0.218355   0.864772   0.647025   x
            x  Zr               13         0.863219   0.687388   0.385203   x
            x  Zr               14         0.699127   0.867038   0.134870   x
            x  Zr               15         0.890244   0.708096   0.882851   x
            x  Zr               16         0.705437   0.846874   0.636377   x
            xxxxxxxxxxxxxxxxxxxxxxxxxxxxxxxxxxxxxxxxxxxxxxxxxxxxxxxxxxxxxxxxx
 
 
------------------------------------------------------------------------ <-- SCF
SCF loop      Energy           Fermi           Energy gain       Timer   <-- SCF
                               energy          per atom          (sec)   <-- SCF
------------------------------------------------------------------------ <-- SCF
Initial  -2.07245172E+004  0.00000000E+000                       156.11  <-- SCF
      1  -2.07248120E+004  9.73056810E+000   1.84258063E-002     158.42  <-- SCF
      2  -2.07248122E+004  9.73056599E+000   1.37308074E-005     160.89  <-- SCF
      3  -2.07248122E+004  9.73041421E+000  -2.02426968E-006     162.64  <-- SCF
      4  -2.07248122E+004  9.73042675E+000  -7.62687020E-007     164.36  <-- SCF
------------------------------------------------------------------------ <-- SCF
 
Final energy, E             =  -20724.53350460     eV
Final free energy (E-TS)    =  -20724.81220263     eV
(energies not corrected for finite basis set)
 
NB est. 0K energy (E-0.5TS)      =  -20724.67285361     eV
 
 
 ******************************** Constrained Forces ********************************
 *                                                                                  *
 *                           Cartesian components (eV/A)                            *
 * -------------------------------------------------------------------------------- *
 *                         x                    y                    z              *
 *                                                                                  *
 * Zr              1     -0.17003              0.17349              0.07424         *
 * Zr              2     -0.22199             -0.00739              0.13209         *
 * Zr              3     -0.01797             -0.06762              0.18832         *
 * Zr              4      0.43282             -0.12403             -0.20239         *
 * Zr              5     -0.27944             -0.08081             -0.09708         *
 * Zr              6      0.27625             -0.16848             -0.13082         *
 * Zr              7     -0.04528             -0.17790              0.27937         *
 * Zr              8      0.12870              0.32005             -0.18682         *
 * Zr              9      0.07093              0.12875              0.46646         *
 * Zr             10      0.24854              0.06096              0.11425         *
 * Zr             11     -0.17641              0.26615              0.17055         *
 * Zr             12     -0.05330             -0.33236             -0.41557         *
 * Zr             13     -0.17376              0.07576              0.04675         *
 * Zr             14      0.02832             -0.00359             -0.28437         *
 * Zr             15     -0.28266              0.09895             -0.03631         *
 * Zr             16      0.23527             -0.16191             -0.11867         *
 *                                                                                  *
 ************************************************************************************
  
 +------------+-------------+-------------+-----------------+ <-- min BFGS
 |    Step    |   lambda    |   F.delta'  |    enthalpy     | <-- min BFGS
 +------------+-------------+-------------+-----------------+ <-- min BFGS
 |  previous  |    0.000000 |    0.373905 |   -20724.804412 | <-- min BFGS
 | trial step |    1.000000 |    0.358209 |   -20724.812203 | <-- min BFGS
 +------------+-------------+-------------+-----------------+ <-- min BFGS
  

--------------------------------------------------------------------------------
 BFGS: improving iteration         4 with line minimization (lambda= 23.822049)
--------------------------------------------------------------------------------
 
                           -------------------------------
                                     Cell Contents
                           -------------------------------
 
            xxxxxxxxxxxxxxxxxxxxxxxxxxxxxxxxxxxxxxxxxxxxxxxxxxxxxxxxxxxxxxxxx
            x  Element         Atom        Fractional coordinates of atoms  x
            x                 Number           u          v          w      x
            x---------------------------------------------------------------x
            x  Zr                1         0.361375   0.186589   0.393601   x
            x  Zr                2         0.198828   0.364739   0.141466   x
            x  Zr                3         0.376898   0.217162   0.888223   x
            x  Zr                4         0.201207   0.363155   0.641535   x
            x  Zr                5         0.865261   0.178426   0.382862   x
            x  Zr                6         0.694144   0.368523   0.135590   x
            x  Zr                7         0.868470   0.209763   0.881465   x
            x  Zr                8         0.703454   0.342008   0.629644   x
            x  Zr                9         0.362003   0.694174   0.390636   x
            x  Zr               10         0.198472   0.867109   0.140883   x
            x  Zr               11         0.389297   0.712947   0.890483   x
            x  Zr               12         0.215493   0.860120   0.643339   x
            x  Zr               13         0.861002   0.688825   0.386393   x
            x  Zr               14         0.699465   0.867291   0.131855   x
            x  Zr               15         0.887255   0.709573   0.882349   x
            x  Zr               16         0.706676   0.844056   0.635353   x
            xxxxxxxxxxxxxxxxxxxxxxxxxxxxxxxxxxxxxxxxxxxxxxxxxxxxxxxxxxxxxxxxx
 
 
------------------------------------------------------------------------ <-- SCF
SCF loop      Energy           Fermi           Energy gain       Timer   <-- SCF
                               energy          per atom          (sec)   <-- SCF
------------------------------------------------------------------------ <-- SCF
Initial  -2.07255498E+004  0.00000000E+000                       167.12  <-- SCF
      1  -2.07248323E+004  9.74552901E+000  -4.48398372E-002     169.43  <-- SCF
      2  -2.07249661E+004  9.74417052E+000   8.35932250E-003     172.68  <-- SCF
      3  -2.07249571E+004  9.74170818E+000  -5.60758344E-004     175.55  <-- SCF
      4  -2.07249318E+004  9.74289387E+000  -1.58340944E-003     178.59  <-- SCF
      5  -2.07249299E+004  9.74290921E+000  -1.18340822E-004     181.16  <-- SCF
      6  -2.07249298E+004  9.74277559E+000  -3.91124083E-006     183.65  <-- SCF
      7  -2.07249292E+004  9.74285236E+000  -3.65839797E-005     185.95  <-- SCF
      8  -2.07249292E+004  9.74284784E+000  -2.12706748E-006     187.80  <-- SCF
      9  -2.07249292E+004  9.74283271E+000  -5.13829493E-007     189.49  <-- SCF
------------------------------------------------------------------------ <-- SCF
 
Final energy, E             =  -20724.66025319     eV
Final free energy (E-TS)    =  -20724.92920204     eV
(energies not corrected for finite basis set)
 
NB est. 0K energy (E-0.5TS)      =  -20724.79472761     eV
 
 
 ******************************** Constrained Forces ********************************
 *                                                                                  *
 *                           Cartesian components (eV/A)                            *
 * -------------------------------------------------------------------------------- *
 *                         x                    y                    z              *
 *                                                                                  *
 * Zr              1     -0.14477              0.24190             -0.02350         *
 * Zr              2      0.02677              0.01553              0.16538         *
 * Zr              3     -0.09693             -0.03633              0.09125         *
 * Zr              4      0.15665             -0.14270              0.08779         *
 * Zr              5     -0.22378              0.07007             -0.07142         *
 * Zr              6      0.18767             -0.09756             -0.10237         *
 * Zr              7      0.07833              0.03870             -0.15697         *
 * Zr              8      0.13818             -0.05073             -0.03443         *
 * Zr              9     -0.04030              0.03533              0.30814         *
 * Zr             10      0.12915             -0.00332              0.14705         *
 * Zr             11     -0.28069              0.08270              0.02584         *
 * Zr             12      0.04402             -0.16097              0.01418         *
 * Zr             13     -0.05788              0.03806             -0.12762         *
 * Zr             14      0.08294             -0.06593             -0.15815         *
 * Zr             15     -0.18110              0.04401             -0.06937         *
 * Zr             16      0.18174             -0.00875             -0.09580         *
 *                                                                                  *
 ************************************************************************************
  
 +------------+-------------+-------------+-----------------+ <-- min BFGS
 |    Step    |   lambda    |   F.delta'  |    enthalpy     | <-- min BFGS
 +------------+-------------+-------------+-----------------+ <-- min BFGS
 |  previous  |    0.000000 |    0.373905 |   -20724.804412 | <-- min BFGS
 | trial step |    1.000000 |    0.358209 |   -20724.812203 | <-- min BFGS
 |  line step |   23.822049 |    0.123093 |   -20724.929202 | <-- min BFGS
 +------------+-------------+-------------+-----------------+ <-- min BFGS
  

--------------------------------------------------------------------------------
 BFGS: improving iteration         4 with quad minimization (lambda= 35.770420)
--------------------------------------------------------------------------------
 
                           -------------------------------
                                     Cell Contents
                           -------------------------------
 
            xxxxxxxxxxxxxxxxxxxxxxxxxxxxxxxxxxxxxxxxxxxxxxxxxxxxxxxxxxxxxxxxx
            x  Element         Atom        Fractional coordinates of atoms  x
            x                 Number           u          v          w      x
            x---------------------------------------------------------------x
            x  Zr                1         0.360673   0.187620   0.394006   x
            x  Zr                2         0.197127   0.364605   0.141951   x
            x  Zr                3         0.376612   0.216559   0.889014   x
            x  Zr                4         0.203641   0.362103   0.640626   x
            x  Zr                5         0.863081   0.177297   0.382370   x
            x  Zr                6         0.695525   0.367158   0.134860   x
            x  Zr                7         0.867122   0.208292   0.883147   x
            x  Zr                8         0.705799   0.344719   0.628777   x
            x  Zr                9         0.363364   0.695566   0.392553   x
            x  Zr               10         0.200360   0.867653   0.141535   x
            x  Zr               11         0.389502   0.715276   0.891233   x
            x  Zr               12         0.213995   0.857684   0.641410   x
            x  Zr               13         0.859841   0.689577   0.387016   x
            x  Zr               14         0.699642   0.867424   0.130276   x
            x  Zr               15         0.885690   0.710346   0.882086   x
            x  Zr               16         0.707324   0.842581   0.634817   x
            xxxxxxxxxxxxxxxxxxxxxxxxxxxxxxxxxxxxxxxxxxxxxxxxxxxxxxxxxxxxxxxxx
 
 
------------------------------------------------------------------------ <-- SCF
SCF loop      Energy           Fermi           Energy gain       Timer   <-- SCF
                               energy          per atom          (sec)   <-- SCF
------------------------------------------------------------------------ <-- SCF
Initial  -2.07250266E+004  0.00000000E+000                       193.31  <-- SCF
      1  -2.07249180E+004  9.74747648E+000  -6.78231132E-003     195.64  <-- SCF
      2  -2.07249545E+004  9.74710976E+000   2.27733826E-003     198.80  <-- SCF
      3  -2.07249517E+004  9.74668666E+000  -1.74366967E-004     201.53  <-- SCF
      4  -2.07249451E+004  9.74717168E+000  -4.12658034E-004     204.17  <-- SCF
      5  -2.07249445E+004  9.74707352E+000  -3.44409035E-005     206.42  <-- SCF
      6  -2.07249445E+004  9.74702885E+000  -7.22860125E-007     208.67  <-- SCF
      7  -2.07249443E+004  9.74705743E+000  -1.08100993E-005     210.63  <-- SCF
      8  -2.07249444E+004  9.74707074E+000   1.47072099E-007     212.21  <-- SCF
      9  -2.07249443E+004  9.74705586E+000  -1.77599123E-007     213.82  <-- SCF
------------------------------------------------------------------------ <-- SCF
 
Final energy, E             =  -20724.67150631     eV
Final free energy (E-TS)    =  -20724.94434742     eV
(energies not corrected for finite basis set)
 
NB est. 0K energy (E-0.5TS)      =  -20724.80792687     eV
 
 
 ******************************** Constrained Forces ********************************
 *                                                                                  *
 *                           Cartesian components (eV/A)                            *
 * -------------------------------------------------------------------------------- *
 *                         x                    y                    z              *
 *                                                                                  *
 * Zr              1     -0.12266              0.26732             -0.07988         *
 * Zr              2      0.16356              0.02482              0.16908         *
 * Zr              3     -0.13670             -0.02253              0.03791         *
 * Zr              4      0.08619             -0.18688              0.19352         *
 * Zr              5     -0.19707              0.15705             -0.04588         *
 * Zr              6      0.11364             -0.04831             -0.08236         *
 * Zr              7      0.13860              0.16440             -0.31427         *
 * Zr              8      0.13304             -0.20177              0.07439         *
 * Zr              9     -0.11488             -0.01997              0.13489         *
 * Zr             10      0.03744             -0.04266              0.15590         *
 * Zr             11     -0.32759             -0.00608             -0.05164         *
 * Zr             12      0.07987             -0.08097              0.21146         *
 * Zr             13      0.01397              0.01300             -0.22103         *
 * Zr             14      0.11226             -0.09913             -0.02357         *
 * Zr             15     -0.11966              0.00431             -0.08272         *
 * Zr             16      0.13998              0.07739             -0.07579         *
 *                                                                                  *
 ************************************************************************************
  
 +------------+-------------+-------------+-----------------+ <-- min BFGS
 |    Step    |   lambda    |   F.delta'  |    enthalpy     | <-- min BFGS
 +------------+-------------+-------------+-----------------+ <-- min BFGS
 |  previous  |    0.000000 |    0.373905 |   -20724.804412 | <-- min BFGS
 | trial step |    1.000000 |    0.358209 |   -20724.812203 | <-- min BFGS
 |  line step |   23.822049 |    0.123093 |   -20724.929202 | <-- min BFGS
 |  quad step |   35.770420 |   -0.002110 |   -20724.944347 | <-- min BFGS
 +------------+-------------+-------------+-----------------+ <-- min BFGS
  
 BFGS: finished iteration     4 with enthalpy= -2.07249443E+004 eV
  
 +-----------+-----------------+-----------------+------------+-----+ <-- BFGS
 | Parameter |      value      |    tolerance    |    units   | OK? | <-- BFGS
 +-----------+-----------------+-----------------+------------+-----+ <-- BFGS
 |  dE/ion   |   8.745985E-003 |   2.000000E-005 |         eV | No  | <-- BFGS
 |  |F|max   |   3.807914E-001 |   5.000000E-002 |       eV/A | No  | <-- BFGS
 |  |dR|max  |   7.233412E-002 |   1.000000E-003 |          A | No  | <-- BFGS
 +-----------+-----------------+-----------------+------------+-----+ <-- BFGS
  

================================================================================
 Starting BFGS iteration          5 ...
================================================================================

Writing analysis data to sim.castep_bin

Writing model to sim.check
  
 +------------+-------------+-------------+-----------------+ <-- min BFGS
 |    Step    |   lambda    |   F.delta'  |    enthalpy     | <-- min BFGS
 +------------+-------------+-------------+-----------------+ <-- min BFGS
 |  previous  |    0.000000 |    0.151212 |   -20724.944347 | <-- min BFGS
 +------------+-------------+-------------+-----------------+ <-- min BFGS
  

[...]
            x  Zr                3         0.350161   0.217462   0.894700   x
            x  Zr                4         0.232877   0.333400   0.645081   x
            x  Zr                5         0.855028   0.207402   0.380919   x
            x  Zr                6         0.700139   0.364107   0.126956   x
            x  Zr                7         0.858962   0.212762   0.878264   x
            x  Zr                8         0.732371   0.331391   0.630378   x
            x  Zr                9         0.363233   0.702982   0.395756   x
            x  Zr               10         0.200328   0.864953   0.145133   x
            x  Zr               11         0.354623   0.720484   0.894573   x
            x  Zr               12         0.233606   0.832343   0.645341   x
            x  Zr               13         0.856166   0.705381   0.381072   x
            x  Zr               14         0.699764   0.865175   0.127810   x
            x  Zr               15         0.856168   0.714845   0.878439   x
            x  Zr               16         0.732274   0.832306   0.628915   x
            xxxxxxxxxxxxxxxxxxxxxxxxxxxxxxxxxxxxxxxxxxxxxxxxxxxxxxxxxxxxxxxxx
 
 
------------------------------------------------------------------------ <-- SCF
SCF loop      Energy           Fermi           Energy gain       Timer   <-- SCF
                               energy          per atom          (sec)   <-- SCF
------------------------------------------------------------------------ <-- SCF
Initial  -2.07251196E+004  0.00000000E+000                       925.67  <-- SCF
      1  -2.07253090E+004  9.68152044E+000   1.18372425E-002     927.98  <-- SCF
      2  -2.07253116E+004  9.68149535E+000   1.63815234E-004     931.06  <-- SCF
      3  -2.07253116E+004  9.68154966E+000  -3.41437226E-006     933.19  <-- SCF
      4  -2.07253115E+004  9.68152371E+000  -5.62110030E-006     935.00  <-- SCF
------------------------------------------------------------------------ <-- SCF
 
Final energy, E             =  -20725.05272750     eV
Final free energy (E-TS)    =  -20725.31148280     eV
(energies not corrected for finite basis set)
 
NB est. 0K energy (E-0.5TS)      =  -20725.18210515     eV
 
 
 ******************************** Constrained Forces ********************************
 *                                                                                  *
 *                           Cartesian components (eV/A)                            *
 * -------------------------------------------------------------------------------- *
 *                         x                    y                    z              *
 *                                                                                  *
 * Zr              1      0.03006             -0.03154             -0.08282         *
 * Zr              2      0.03645             -0.11495             -0.01693         *
 * Zr              3      0.02747             -0.03582             -0.01842         *
 * Zr              4      0.02105             -0.06496              0.08561         *
 * Zr              5      0.00440             -0.05196             -0.05699         *
 * Zr              6      0.01848              0.07104              0.10692         *
 * Zr              7     -0.11798              0.11454             -0.03559         *
 * Zr              8     -0.00895              0.07955             -0.02033         *
 * Zr              9     -0.01614             -0.03322              0.02613         *
 * Zr             10      0.01110              0.01120              0.11328         *
 * Zr             11     -0.05620             -0.03004             -0.04658         *
 * Zr             12     -0.10012              0.03790              0.02163         *
 * Zr             13      0.00891             -0.05149             -0.08210         *
 * Zr             14      0.12142              0.01767              0.02036         *
 * Zr             15     -0.03997              0.06080             -0.05616         *
 * Zr             16      0.06001              0.02128              0.04199         *
 *                                                                                  *
 ************************************************************************************
  
 +------------+-------------+-------------+-----------------+ <-- min BFGS
 |    Step    |   lambda    |   F.delta'  |    enthalpy     | <-- min BFGS
 +------------+-------------+-------------+-----------------+ <-- min BFGS
 |  previous  |    0.000000 |    0.061684 |   -20725.306947 | <-- min BFGS
 | trial step |    1.000000 |    0.041376 |   -20725.311483 | <-- min BFGS
 +------------+-------------+-------------+-----------------+ <-- min BFGS
  

--------------------------------------------------------------------------------
 BFGS: improving iteration        30 with line minimization (lambda=  3.037401)
--------------------------------------------------------------------------------
 
                           -------------------------------
                                     Cell Contents
                           -------------------------------
 
            xxxxxxxxxxxxxxxxxxxxxxxxxxxxxxxxxxxxxxxxxxxxxxxxxxxxxxxxxxxxxxxxx
            x  Element         Atom        Fractional coordinates of atoms  x
            x                 Number           u          v          w      x
            x---------------------------------------------------------------x
            x  Zr                1         0.361656   0.202568   0.396484   x
            x  Zr                2         0.201085   0.365550   0.145526   x
            x  Zr                3         0.349208   0.217305   0.894911   x
            x  Zr                4         0.234358   0.333730   0.645203   x
            x  Zr                5         0.852677   0.205472   0.380744   x
            x  Zr                6         0.700585   0.363627   0.127053   x
            x  Zr                7         0.858609   0.214370   0.878302   x
            x  Zr                8         0.734440   0.333054   0.630035   x
            x  Zr                9         0.362518   0.702776   0.396328   x
            x  Zr               10         0.200533   0.864662   0.145366   x
            x  Zr               11         0.353641   0.719722   0.894574   x
            x  Zr               12         0.234559   0.832889   0.645186   x
            x  Zr               13         0.855325   0.704906   0.381044   x
            x  Zr               14         0.700192   0.864072   0.127558   x
            x  Zr               15         0.855603   0.716460   0.878423   x
            x  Zr               16         0.734309   0.833294   0.628941   x
            xxxxxxxxxxxxxxxxxxxxxxxxxxxxxxxxxxxxxxxxxxxxxxxxxxxxxxxxxxxxxxxxx
 
 
------------------------------------------------------------------------ <-- SCF
SCF loop      Energy           Fermi           Energy gain       Timer   <-- SCF
                               energy          per atom          (sec)   <-- SCF
------------------------------------------------------------------------ <-- SCF
Initial  -2.07252463E+004  0.00000000E+000                       936.74  <-- SCF
      1  -2.07253063E+004  9.67492874E+000   3.75041654E-003     939.05  <-- SCF
      2  -2.07253172E+004  9.67482566E+000   6.82404281E-004     942.16  <-- SCF
      3  -2.07253171E+004  9.67498549E+000  -8.69414784E-006     944.73  <-- SCF
      4  -2.07253166E+004  9.67492248E+000  -3.02177753E-005     946.98  <-- SCF
      5  -2.07253165E+004  9.67491168E+000  -4.90328444E-006     948.69  <-- SCF
      6  -2.07253165E+004  9.67491150E+000   5.13079880E-007     950.31  <-- SCF
------------------------------------------------------------------------ <-- SCF
 
Final energy, E             =  -20725.06238335     eV
Final free energy (E-TS)    =  -20725.31650031     eV
(energies not corrected for finite basis set)
 
NB est. 0K energy (E-0.5TS)      =  -20725.18944183     eV
 
 
 ******************************** Constrained Forces ********************************
 *                                                                                  *
 *                           Cartesian components (eV/A)                            *
 * -------------------------------------------------------------------------------- *
 *                         x                    y                    z              *
 *                                                                                  *
 * Zr              1      0.04637             -0.03126             -0.06026         *
 * Zr              2      0.03410             -0.06304              0.03511         *
 * Zr              3      0.05208             -0.04353             -0.03350         *
 * Zr              4     -0.04425             -0.06716              0.06950         *
 * Zr              5      0.02957             -0.01351             -0.06392         *
 * Zr              6      0.02058              0.07056              0.09788         *
 * Zr              7     -0.11632              0.11941             -0.04188         *
 * Zr              8     -0.03019              0.01078             -0.01431         *
 * Zr              9     -0.00659             -0.05422             -0.05792         *
 * Zr             10      0.04670             -0.00134              0.08258         *
 * Zr             11     -0.05172             -0.02056             -0.04134         *
 * Zr             12     -0.09535              0.03035              0.06056         *
 * Zr             13      0.02564             -0.05613             -0.08437         *
 * Zr             14      0.08772              0.05730              0.06094         *
 * Zr             15      0.00177              0.05370             -0.05123         *
 * Zr             16     -0.00012              0.00865              0.04217         *
 *                                                                                  *
 ************************************************************************************
  
 +------------+-------------+-------------+-----------------+ <-- min BFGS
 |    Step    |   lambda    |   F.delta'  |    enthalpy     | <-- min BFGS
 +------------+-------------+-------------+-----------------+ <-- min BFGS
 |  previous  |    0.000000 |    0.061684 |   -20725.306947 | <-- min BFGS
 | trial step |    1.000000 |    0.041376 |   -20725.311483 | <-- min BFGS
 |  line step |    3.037401 |    0.011825 |   -20725.316500 | <-- min BFGS
 +------------+-------------+-------------+-----------------+ <-- min BFGS
  
 BFGS: finished iteration    30 with enthalpy= -2.07253165E+004 eV
  
 +-----------+-----------------+-----------------+------------+-----+ <-- BFGS
 | Parameter |      value      |    tolerance    |    units   | OK? | <-- BFGS
 +-----------+-----------------+-----------------+------------+-----+ <-- BFGS
 |  dE/ion   |   5.970970E-004 |   2.000000E-005 |         eV | No  | <-- BFGS
 |  |F|max   |   1.718808E-001 |   5.000000E-002 |       eV/A | No  | <-- BFGS
 |  |dR|max  |   2.109277E-002 |   1.000000E-003 |          A | No  | <-- BFGS
 +-----------+-----------------+-----------------+------------+-----+ <-- BFGS
  
 BFGS: WARNING - Geometry optimization failed to converge after         30 steps

================================================================================
 BFGS: Final Configuration:
================================================================================
 
                           -------------------------------
                                     Cell Contents
                           -------------------------------
 
            xxxxxxxxxxxxxxxxxxxxxxxxxxxxxxxxxxxxxxxxxxxxxxxxxxxxxxxxxxxxxxxxx
            x  Element         Atom        Fractional coordinates of atoms  x
            x                 Number           u          v          w      x
            x---------------------------------------------------------------x
            x  Zr                1         0.361656   0.202568   0.396484   x
            x  Zr                2         0.201085   0.365550   0.145526   x
            x  Zr                3         0.349208   0.217305   0.894911   x
            x  Zr                4         0.234358   0.333730   0.645203   x
            x  Zr                5         0.852677   0.205472   0.380744   x
            x  Zr                6         0.700585   0.363627   0.127053   x
            x  Zr                7         0.858609   0.214370   0.878302   x
            x  Zr                8         0.734440   0.333054   0.630035   x
            x  Zr                9         0.362518   0.702776   0.396328   x
            x  Zr               10         0.200533   0.864662   0.145366   x
            x  Zr               11         0.353641   0.719722   0.894574   x
            x  Zr               12         0.234559   0.832889   0.645186   x
            x  Zr               13         0.855325   0.704906   0.381044   x
            x  Zr               14         0.700192   0.864072   0.127558   x
            x  Zr               15         0.855603   0.716460   0.878423   x
            x  Zr               16         0.734309   0.833294   0.628941   x
            xxxxxxxxxxxxxxxxxxxxxxxxxxxxxxxxxxxxxxxxxxxxxxxxxxxxxxxxxxxxxxxxx
 
 
 BFGS: Final Enthalpy     = -2.07253165E+004 eV
 BFGS: Final <frequency>  =     286.33018 cm-1
  
  **********************************************************
  *** There were at least     1 warnings during this run ***
  *** => please check the whole of this file carefully!  ***
  **********************************************************
 
 ******************* Unconstrained Forces *******************
 *                                                          *
 *               Cartesian components (eV/A)                *
 * -------------------------------------------------------- *
 *                         x            y            z      *
 *                                                          *
 * Zr              1      0.04637     -0.03126     -0.06026 *
 * Zr              2      0.03410     -0.06304      0.03511 *
 * Zr              3      0.05208     -0.04353     -0.03350 *
 * Zr              4     -0.04425     -0.06716      0.06950 *
 * Zr              5      0.02957     -0.01351     -0.06392 *
 * Zr              6      0.02058      0.07056      0.09788 *
 * Zr              7     -0.11632      0.11941     -0.04188 *
 * Zr              8     -0.03019      0.01078     -0.01431 *
 * Zr              9     -0.00659     -0.05422     -0.05792 *
 * Zr             10      0.04670     -0.00134      0.08258 *
 * Zr             11     -0.05172     -0.02056     -0.04134 *
 * Zr             12     -0.09535      0.03035      0.06056 *
 * Zr             13      0.02564     -0.05613     -0.08437 *
 * Zr             14      0.08772      0.05730      0.06094 *
 * Zr             15      0.00177      0.05370     -0.05123 *
 * Zr             16     -0.00012      0.00865      0.04217 *
 *                                                          *
 ************************************************************
 
 ******************************** Constrained Forces ********************************
 *                                                                                  *
 *                           Cartesian components (eV/A)                            *
 * -------------------------------------------------------------------------------- *
 *                         x                    y                    z              *
 *                                                                                  *
 * Zr              1      0.04637             -0.03126             -0.06026         *
 * Zr              2      0.03410             -0.06304              0.03511         *
 * Zr              3      0.05208             -0.04353             -0.03350         *
 * Zr              4     -0.04425             -0.06716              0.06950         *
 * Zr              5      0.02957             -0.01351             -0.06392         *
 * Zr              6      0.02058              0.07056              0.09788         *
 * Zr              7     -0.11632              0.11941             -0.04188         *
 * Zr              8     -0.03019              0.01078             -0.01431         *
 * Zr              9     -0.00659             -0.05422             -0.05792         *
 * Zr             10      0.04670             -0.00134              0.08258         *
 * Zr             11     -0.05172             -0.02056             -0.04134         *
 * Zr             12     -0.09535              0.03035              0.06056         *
 * Zr             13      0.02564             -0.05613             -0.08437         *
 * Zr             14      0.08772              0.05730              0.06094         *
 * Zr             15      0.00177              0.05370             -0.05123         *
 * Zr             16     -0.00012              0.00865              0.04217         *
 *                                                                                  *
 ************************************************************************************
 
 Pseudo atomic calculation performed for Zr 4s2 4p6 4d2 5s2
 
 Converged in 24 iterations to a total energy of -1287.0756 eV
 
Charge spilling parameter for spin component 1 = 0.08%
 
     Atomic Populations (Mulliken)
     -----------------------------
Species          Ion     s      p      d      f     Total  Charge (e)
=====================================================================
  Zr              1     2.44   6.68   2.88   0.00  12.00     0.00
  Zr              2     2.44   6.69   2.87   0.00  12.00    -0.00
  Zr              3     2.43   6.65   2.92   0.00  12.00     0.00
  Zr              4     2.43   6.65   2.93   0.00  12.01    -0.01
  Zr              5     2.43   6.66   2.90   0.00  11.99     0.01
  Zr              6     2.44   6.69   2.87   0.00  12.00    -0.00
  Zr              7     2.44   6.67   2.89   0.00  12.00     0.00
  Zr              8     2.43   6.64   2.94   0.00  12.01    -0.01
  Zr              9     2.44   6.69   2.88   0.00  12.01    -0.01
  Zr             10     2.44   6.69   2.87   0.00  12.00    -0.00
  Zr             11     2.43   6.65   2.91   0.00  11.99     0.01
  Zr             12     2.43   6.65   2.93   0.00  12.01    -0.01
  Zr             13     2.43   6.66   2.90   0.00  11.99     0.01
  Zr             14     2.44   6.69   2.87   0.00  12.00     0.00
  Zr             15     2.44   6.67   2.89   0.00  12.00    -0.00
  Zr             16     2.43   6.64   2.94   0.00  12.01    -0.01
=====================================================================
 
                 Bond                   Population      Length (A)
======================================================================
             Zr 11 -- Zr 12                  0.29        2.87786
             Zr 3  -- Zr 4                   0.29        2.87828
             Zr 15 -- Zr 16                  0.29        2.89371
             Zr 7  -- Zr 8                   0.29        2.89495
             Zr 13 -- Zr 16                  0.27        2.90905
             Zr 5  -- Zr 8                   0.27        2.91218
             Zr 1  -- Zr 4                   0.28        2.94100
             Zr 9  -- Zr 12                  0.27        2.94116
======================================================================
 

Writing analysis data to sim.castep_bin

Writing model to sim.check
 
 A BibTeX formatted list of references used in this run has been written to 
 sim.bib
 
Initialisation time =     10.06 s
Calculation time    =    942.84 s
Finalisation time   =      2.17 s
Total time          =    955.07 s
Peak Memory Use     = 726056 kB
  
Overall parallel efficiency rating: Excellent (98%)                             
  
Data was distributed by:-
k-point (2-way); efficiency rating: Excellent (99%)                             
