 +-------------------------------------------------+
 |                                                 |
 |      CCC   AA    SSS  TTTTT  EEEEE  PPPP        |
 |     C     A  A  S       T    E      P   P       |
 |     C     AAAA   SS     T    EEE    PPPP        |
 |     C     A  A     S    T    E      P           |
 |      CCC  A  A  SSS     T    EEEEE  P           |
 |                                                 |
 +-------------------------------------------------+
 |                                                 |
 | Welcome to Academic Release CASTEP version 17.2 |          
 | Ab Initio Total Energy Program                  |
 |                                                 |
 | Authors:                                        |
 | M. Segall, M. Probert, C. Pickard, P. Hasnip,   |
 | S. Clark, K. Refson, J. R. Yates, M. Payne      |
 |                                                 |
 | Contributors:                                   |
 | P. Lindan, P. Haynes, J. White, V. Milman,      |
 | N. Govind, M. Gibson, P. Tulip, V. Cocula,      |
 | B. Montanari, D. Quigley, M. Glover,            |
 | L. Bernasconi, A. Perlov, M. Plummer,           |
 | E. McNellis, J. Meyer, J. Gale, D. Jochym       |
 | J. Aarons, B. Walker, R. Gillen, D. Jones       |
 | T. Green, I. J. Bush, C. J. Armstrong,          |
 | E. J. Higgins, E. L. Brown, M. S. McFly,        |
 | J. Wilkins, B-C. Shih, P. J. P. Byrne           |
 |                                                 |
 | Copyright (c) 2000 - 2017                       |
 |                                                 |
 |     Distributed under the terms of an           |
 |     Agreement between the United Kingdom        |
 |     Car-Parrinello (UKCP) Consortium,           |
 |     Daresbury Laboratory and Accelrys, Inc.     |
 |                                                 |
 | Please cite                                     |
 |                                                 |
 |     "First principles methods using CASTEP"     |
 |                                                 |
 |         Zeitschrift fuer Kristallographie       |
 |           220(5-6) pp. 567-570 (2005)           |
 |                                                 |
 | S. J. Clark, M. D. Segall, C. J. Pickard,       |
 | P. J. Hasnip, M. J. Probert, K. Refson,         |
 | M. C. Payne                                     |
 |                                                 |
 |       in all publications arising from          |
 |              your use of CASTEP                 |
 |                                                 |
 +-------------------------------------------------+
 
 
 Compiled for linux_x86_64_ifort17 on Thu, 28 Feb 2019 10:59:43 +0000
 from code version 
 4947bf343853+ Castep172_branch Tue, 28 Feb 2017 17:24:36 +0000
 Compiler: Intel Fortran 17.0.7.259; Optimisation: intermediate
 MATHLIBS: Intel MKL(2017.0.4) (LAPACK version 3.7.0)
 FFT Lib : mkl
 Fundamental constants values: CODATA 2010
 
 Run started: Sun, 27 Oct 2019 15:44:50 +0000
 
 Atomic calculation performed for Zr: 1s2 2s2 2p6 3s2 3p6 3d10 4s2 4p6 4d2 5s2
 
 Converged in 74 iterations to an ae energy of -97813.878 eV
 
 Warning: ion_atom_descreen_psp: negative charge density encountered
   ============================================================                
   | Pseudopotential Report - Date of generation 27-10-2019   |                
   ------------------------------------------------------------                
   | Element: Zr Ionic charge: 12.00 Level of theory: LDA     |                
   | Atomic Solver: Koelling-Harmon                           |                
   |                                                          |                
   |               Reference Electronic Structure             |                
   |         Orbital         Occupation         Energy        |                
   |            4s              2.000           -2.003        |                
   |            4p              6.000           -1.194        |                
   |            5s              2.000           -0.169        |                
   |            4d              2.000           -0.137        |                
   |                                                          |                
   |                 Pseudopotential Definition               |                
   |        Beta     l      e      Rc     scheme   norm       |                
   |          1      0   -2.003   2.105     qc      0         |                
   |          2      0   -0.169   2.105     qc      0         |                
   |          3      0    0.250   2.105     qc      0         |                
   |          4      1   -1.194   2.105     qc      0         |                
   |          5      1    0.250   2.105     qc      0         |                
   |          6      2   -0.137   2.105     qc      0         |                
   |          7      2    0.250   2.105     qc      0         |                
   |         loc     3    0.000   2.105     pn      0         |                
   |                                                          |                
   | Augmentation charge Rinner = 1.471                       |                
   | Partial core correction Rc = 1.471                       |                
   ------------------------------------------------------------                
   | "3|2.1|7|8|9|40U:50:41:42"                               |                
   ------------------------------------------------------------                
   |      Author: Chris J. Pickard, Cambridge University      |                
   ============================================================                
 
 Pseudo atomic calculation performed for Zr 4s2 4p6 4d2 5s2
 
 Converged in 24 iterations to a total energy of -1287.0756 eV
 
 Calculation parallelised over 2 processes.
 Data is distributed by k-point(2-way)

 ************************************ Title ************************************
 

 ***************************** General Parameters ******************************
  
 output verbosity                               : normal  (1)
 write checkpoint data to                       : sim.check
 type of calculation                            : single point energy
 stress calculation                             : off
 density difference calculation                 : off
 electron localisation func (ELF) calculation   : off
 Hirshfeld analysis                             : off
 unlimited duration calculation
 timing information                             : on
 memory usage estimate                          : on
 write final potential to formatted file        : off
 write final density to formatted file          : off
 write BibTeX reference list                    : on
 write OTFG pseudopotential files               : on
 write electrostatic potential file             : on
 write bands file                               : on
 checkpoint writing                             : both castep_bin and check files
 random number generator seed                   : randomised (154450526)

 *********************** Exchange-Correlation Parameters ***********************
  
 using functional                               : Local Density Approximation
 DFT+D: Semi-empirical dispersion correction    : off

 ************************* Pseudopotential Parameters **************************
  
 pseudopotential representation                 : reciprocal space
 <beta|phi> representation                      : reciprocal space
 spin-orbit coupling                            : off

 **************************** Basis Set Parameters *****************************
  
 basis set accuracy                             : FINE
 finite basis set correction                    : none

 **************************** Electronic Parameters ****************************
  
 number of  electrons                           :  192.0    
 net charge of system                           :  0.000    
 treating system as non-spin-polarized
 number of bands                                :        115

 ********************* Electronic Minimization Parameters **********************
  
 Method: Treating system as metallic with density mixing treatment of electrons,
         and number of  SD  steps               :          1
         and number of  CG  steps               :          4
  
 total energy / atom convergence tol.           : 0.1000E-04   eV
 eigen-energy convergence tolerance             : 0.1000E-05   eV
 max force / atom convergence tol.              : ignored
 periodic dipole correction                     : NONE

 ************************** Density Mixing Parameters **************************
  
 density-mixing scheme                          : Broyden
 max. length of mixing history                  :         20

 *********************** Population Analysis Parameters ************************
  
 Population analysis with cutoff                :  3.000       A

 *******************************************************************************
  
 
                           -------------------------------
                                      Unit Cell
                           -------------------------------
        Real Lattice(A)                      Reciprocal Lattice(1/A)
   6.4632000   0.0000000   0.0000000        0.9721477   0.5612698  -0.0000000
  -3.2316000   5.5972954   0.0000000        0.0000000   1.1225395  -0.0000000
   0.0000000   0.0000000  10.2950000        0.0000000   0.0000000   0.6103143
 
                       Lattice parameters(A)       Cell Angles
                    a =    6.463200          alpha =   90.000000
                    b =    6.463200          beta  =   90.000000
                    c =   10.295000          gamma =  120.000000
 
                       Current cell volume =  372.436445       A**3
                                   density =    3.919015   AMU/A**3
                                           =    6.507677     g/cm^3
 
                           -------------------------------
                                     Cell Contents
                           -------------------------------
                         Total number of ions in cell =   16
                      Total number of species in cell =    1
                        Max number of any one species =   16
 
            xxxxxxxxxxxxxxxxxxxxxxxxxxxxxxxxxxxxxxxxxxxxxxxxxxxxxxxxxxxx
            x  Element    Atom        Fractional coordinates of atoms  x
            x            Number           u          v          w      x
            x----------------------------------------------------------x
            x  Zr           1         0.333333   0.166667   0.375000   x 
            x  Zr           2         0.166667   0.333333   0.125000   x 
            x  Zr           3         0.333333   0.166667   0.875000   x 
            x  Zr           4         0.166667   0.333333   0.625000   x 
            x  Zr           5         0.833333   0.166667   0.375000   x 
            x  Zr           6         0.666667   0.333333   0.125000   x 
            x  Zr           7         0.833333   0.166667   0.875000   x 
            x  Zr           8         0.666667   0.333333   0.625000   x 
            x  Zr           9         0.333333   0.666667   0.375000   x 
            x  Zr          10         0.166667   0.833333   0.125000   x 
            x  Zr          11         0.333333   0.666667   0.875000   x 
            x  Zr          12         0.166667   0.833333   0.625000   x 
            x  Zr          13         0.833333   0.666667   0.375000   x 
            x  Zr          14         0.666667   0.833333   0.125000   x 
            x  Zr          15         0.833333   0.666667   0.875000   x 
            x  Zr          16         0.666667   0.833333   0.625000   x 
            xxxxxxxxxxxxxxxxxxxxxxxxxxxxxxxxxxxxxxxxxxxxxxxxxxxxxxxxxxxx
 
 
                         No user defined ionic velocities
 
                           -------------------------------
                                   Details of Species
                           -------------------------------
 
                               Mass of species in AMU
                                    Zr   91.2240000
 
                          Electric Quadrupole Moment (Barn)
                                    Zr   -0.1760000 Isotope 91
 
                          Files used for pseudopotentials:
                                    Zr 3|2.1|7|8|9|40U:50:41:42
 
                           -------------------------------
                              k-Points For BZ Sampling
                           -------------------------------
                       MP grid size for SCF calculation is  2  2  1
                            with an offset of   0.000  0.000  0.000
                       Number of kpoints used =             2
 
                           -------------------------------
                               Symmetry and Constraints
                           -------------------------------
 
                      Cell is a supercell containing 8 primitive cells
                      Maximum deviation from symmetry =  0.00000         ANG
 
                      Number of symmetry operations   =           1
                      Number of ionic constraints     =           3
                      Point group of crystal =     1: C1, 1, 1
                      Space group of crystal =   194: P6_3/mmc, -P 6c 2c
 
             Set iprint > 1 for details on symmetry rotations/translations
 
                         Centre of mass is constrained
             Set iprint > 1 for details of linear ionic constraints
 
                         Number of cell constraints= 0
                         Cell constraints are:  1 2 3 4 5 6
 
                         External pressure/stress (GPa)
                          0.00000   0.00000   0.00000
                                    0.00000   0.00000
                                              0.00000
  
+---------------- MEMORY AND SCRATCH DISK ESTIMATES PER PROCESS --------------+
|                                                     Memory          Disk    |
| Baseline code, static data and system overhead      352.0 MB         0.0 MB |
| BLAS internal memory storage                          0.0 MB         0.0 MB |
| Model and support data                               50.1 MB        64.0 MB |
| Electronic energy minimisation requirements          41.9 MB         0.0 MB |
| Force calculation requirements                        6.3 MB         0.0 MB |
|                                               ----------------------------- |
| Approx. total storage required per process          444.0 MB        64.0 MB |
|                                                                             |
| Requirements will fluctuate during execution and may exceed these estimates |
+-----------------------------------------------------------------------------+
Calculating total energy with cut-off of  244.902 eV.
------------------------------------------------------------------------ <-- SCF
SCF loop      Energy           Fermi           Energy gain       Timer   <-- SCF
                               energy          per atom          (sec)   <-- SCF
------------------------------------------------------------------------ <-- SCF
Initial  -1.72398321E+004  0.00000000E+000                        12.07  <-- SCF
      1  -2.01881895E+004  1.20817276E+001   1.84272338E+002      15.39  <-- SCF
      2  -2.06977223E+004  1.01841686E+001   3.18457989E+001      17.95  <-- SCF
      3  -2.07256217E+004  9.99025161E+000   1.74371675E+000      20.81  <-- SCF
      4  -2.07251982E+004  9.76895803E+000  -2.64691356E-002      23.49  <-- SCF
      5  -2.07252662E+004  9.76701620E+000   4.24855689E-003      27.20  <-- SCF
      6  -2.07252289E+004  9.76599078E+000  -2.33385155E-003      30.08  <-- SCF
      7  -2.07252275E+004  9.76323432E+000  -8.30161566E-005      32.50  <-- SCF
      8  -2.07252278E+004  9.76297539E+000   1.75286433E-005      34.90  <-- SCF
      9  -2.07252265E+004  9.76290887E+000  -8.27013368E-005      37.13  <-- SCF
     10  -2.07252265E+004  9.76287342E+000   9.76737366E-007      38.92  <-- SCF
     11  -2.07252265E+004  9.76286578E+000  -9.62048099E-007      40.61  <-- SCF
------------------------------------------------------------------------ <-- SCF
 
Final energy, E             =  -20724.93931925     eV
Final free energy (E-TS)    =  -20725.22649761     eV
(energies not corrected for finite basis set)
 
NB est. 0K energy (E-0.5TS)      =  -20725.08290843     eV
 

Writing analysis data to sim.castep_bin

Writing model to sim.check
 
 ******************* Unconstrained Forces *******************
 *                                                          *
 *               Cartesian components (eV/A)                *
 * -------------------------------------------------------- *
 *                         x            y            z      *
 *                                                          *
 * Zr              1     -0.10731      0.06222     -0.00074 *
 * Zr              2      0.10860     -0.06229     -0.00094 *
 * Zr              3     -0.10742      0.06246      0.00061 *
 * Zr              4      0.10855     -0.06227      0.00097 *
 * Zr              5     -0.10880      0.06176      0.00075 *
 * Zr              6      0.10768     -0.06277      0.00046 *
 * Zr              7     -0.10851      0.06201     -0.00064 *
 * Zr              8      0.10732     -0.06285     -0.00052 *
 * Zr              9     -0.10748      0.06331      0.00096 *
 * Zr             10      0.10880     -0.06224      0.00013 *
 * Zr             11     -0.10752      0.06317     -0.00097 *
 * Zr             12      0.10890     -0.06209     -0.00039 *
 * Zr             13     -0.10894      0.06237     -0.00016 *
 * Zr             14      0.10743     -0.06272     -0.00072 *
 * Zr             15     -0.10881      0.06246      0.00025 *
 * Zr             16      0.10749     -0.06253      0.00096 *
 *                                                          *
 ************************************************************
 
 ******************** Constrained Forces ********************
 *                                                          *
 *               Cartesian components (eV/A)                *
 * -------------------------------------------------------- *
 *                         x            y            z      *
 *                                                          *
 * Zr              1     -0.10731      0.06222     -0.00074 *
 * Zr              2      0.10860     -0.06229     -0.00094 *
 * Zr              3     -0.10742      0.06246      0.00061 *
 * Zr              4      0.10855     -0.06227      0.00097 *
 * Zr              5     -0.10880      0.06176      0.00075 *
 * Zr              6      0.10768     -0.06277      0.00046 *
 * Zr              7     -0.10851      0.06201     -0.00064 *
 * Zr              8      0.10732     -0.06285     -0.00052 *
 * Zr              9     -0.10748      0.06331      0.00096 *
 * Zr             10      0.10880     -0.06224      0.00013 *
 * Zr             11     -0.10752      0.06317     -0.00097 *
 * Zr             12      0.10890     -0.06209     -0.00039 *
 * Zr             13     -0.10894      0.06237     -0.00016 *
 * Zr             14      0.10743     -0.06272     -0.00072 *
 * Zr             15     -0.10881      0.06246      0.00025 *
 * Zr             16      0.10749     -0.06253      0.00096 *
 *                                                          *
 ************************************************************
 
 Pseudo atomic calculation performed for Zr 4s2 4p6 4d2 5s2
 
 Converged in 24 iterations to a total energy of -1287.0756 eV
 
Charge spilling parameter for spin component 1 = 0.09%
 
     Atomic Populations (Mulliken)
     -----------------------------
Species          Ion     s      p      d      f     Total  Charge (e)
=====================================================================
  Zr              1     2.44   6.69   2.87   0.00  12.00    -0.00
  Zr              2     2.44   6.69   2.87   0.00  12.00     0.00
  Zr              3     2.44   6.69   2.87   0.00  12.00     0.00
  Zr              4     2.44   6.69   2.87   0.00  12.00     0.00
  Zr              5     2.44   6.69   2.87   0.00  12.00     0.00
  Zr              6     2.44   6.69   2.87   0.00  12.00    -0.00
  Zr              7     2.44   6.69   2.87   0.00  12.00    -0.00
  Zr              8     2.44   6.69   2.87   0.00  12.00     0.00
  Zr              9     2.44   6.69   2.87   0.00  12.00     0.00
  Zr             10     2.44   6.69   2.87   0.00  12.00    -0.00
  Zr             11     2.44   6.69   2.87   0.00  12.00    -0.00
  Zr             12     2.44   6.69   2.87   0.00  12.00     0.00
  Zr             13     2.44   6.69   2.87   0.00  12.00     0.00
  Zr             14     2.44   6.69   2.87   0.00  12.00     0.00
  Zr             15     2.44   6.69   2.87   0.00  12.00     0.00
  Zr             16     2.44   6.69   2.87   0.00  12.00    -0.00
=====================================================================
 
                 Bond                   Population      Length (A)
======================================================================
======================================================================
 

Writing analysis data to sim.castep_bin

Writing model to sim.check
 
 A BibTeX formatted list of references used in this run has been written to 
 sim.bib
 
Initialisation time =     10.51 s
Calculation time    =     32.52 s
Finalisation time   =      1.07 s
Total time          =     44.10 s
Peak Memory Use     = 693284 kB
  
Overall parallel efficiency rating: Very good (88%)                             
  
Data was distributed by:-
k-point (2-way); efficiency rating: Very good (88%)                             
  
Parallel notes:
1) Calculation only took 43.1 s, so efficiency estimates may be inaccurate.     
