 +-------------------------------------------------+
 |                                                 |
 |      CCC   AA    SSS  TTTTT  EEEEE  PPPP        |
 |     C     A  A  S       T    E      P   P       |
 |     C     AAAA   SS     T    EEE    PPPP        |
 |     C     A  A     S    T    E      P           |
 |      CCC  A  A  SSS     T    EEEEE  P           |
 |                                                 |
 +-------------------------------------------------+
 |                                                 |
 | Welcome to Academic Release CASTEP version 17.2 |          
 | Ab Initio Total Energy Program                  |
 |                                                 |
 | Authors:                                        |
 | M. Segall, M. Probert, C. Pickard, P. Hasnip,   |
 | S. Clark, K. Refson, J. R. Yates, M. Payne      |
 |                                                 |
 | Contributors:                                   |
 | P. Lindan, P. Haynes, J. White, V. Milman,      |
 | N. Govind, M. Gibson, P. Tulip, V. Cocula,      |
 | B. Montanari, D. Quigley, M. Glover,            |
 | L. Bernasconi, A. Perlov, M. Plummer,           |
 | E. McNellis, J. Meyer, J. Gale, D. Jochym       |
 | J. Aarons, B. Walker, R. Gillen, D. Jones       |
 | T. Green, I. J. Bush, C. J. Armstrong,          |
 | E. J. Higgins, E. L. Brown, M. S. McFly,        |
 | J. Wilkins, B-C. Shih, P. J. P. Byrne           |
 |                                                 |
 | Copyright (c) 2000 - 2017                       |
 |                                                 |
 |     Distributed under the terms of an           |
 |     Agreement between the United Kingdom        |
 |     Car-Parrinello (UKCP) Consortium,           |
 |     Daresbury Laboratory and Accelrys, Inc.     |
 |                                                 |
 | Please cite                                     |
 |                                                 |
 |     "First principles methods using CASTEP"     |
 |                                                 |
 |         Zeitschrift fuer Kristallographie       |
 |           220(5-6) pp. 567-570 (2005)           |
 |                                                 |
 | S. J. Clark, M. D. Segall, C. J. Pickard,       |
 | P. J. Hasnip, M. J. Probert, K. Refson,         |
 | M. C. Payne                                     |
 |                                                 |
 |       in all publications arising from          |
 |              your use of CASTEP                 |
 |                                                 |
 +-------------------------------------------------+
 
 
 Compiled for linux_x86_64_ifort14 on Tue, 14 Mar 2017 16:27:43 +0000
 from code version 
 4947bf343853+ Castep172_branch Tue, 28 Feb 2017 17:24:36 +0000
 Compiler: Intel Fortran 14.0.3.174; Optimisation: fast
 MATHLIBS: Intel MKL(11.1.3) (LAPACK version 3.4.1)
 FFT Lib : mkl
 Fundamental constants values: CODATA 2010
 
 Run started: Sun, 18 Feb 2018 13:36:09 +0000
 
 Atomic calculation performed for Zr: 1s2 2s2 2p6 3s2 3p6 3d10 4s2 4p6 4d2 5s2
 
 Converged in 73 iterations to an ae energy of -97920.939 eV
 
 Warning: ion_atom_descreen_psp: negative charge density encountered
   ============================================================                
   | Pseudopotential Report - Date of generation 18-02-2018   |                
   ------------------------------------------------------------                
   | Element: Zr Ionic charge: 12.00 Level of theory: PBE     |                
   | Atomic Solver: Koelling-Harmon                           |                
   |                                                          |                
   |               Reference Electronic Structure             |                
   |         Orbital         Occupation         Energy        |                
   |            4s              2.000           -2.003        |                
   |            4p              6.000           -1.193        |                
   |            5s              2.000           -0.163        |                
   |            4d              2.000           -0.132        |                
   |                                                          |                
   |                 Pseudopotential Definition               |                
   |        Beta     l      e      Rc     scheme   norm       |                
   |          1      0   -2.003   2.105     qc      0         |                
   |          2      0   -0.163   2.105     qc      0         |                
   |          3      0    0.250   2.105     qc      0         |                
   |          4      1   -1.193   2.105     qc      0         |                
   |          5      1    0.250   2.105     qc      0         |                
   |          6      2   -0.132   2.105     qc      0         |                
   |          7      2    0.250   2.105     qc      0         |                
   |         loc     3    0.000   2.105     pn      0         |                
   |                                                          |                
   | Augmentation charge Rinner = 1.471                       |                
   | Partial core correction Rc = 1.471                       |                
   ------------------------------------------------------------                
   | "3|2.1|7|8|9|40U:50:41:42"                               |                
   ------------------------------------------------------------                
   |      Author: Chris J. Pickard, Cambridge University      |                
   ============================================================                
 
 Atomic calculation performed for I:
 1s2 2s2 2p6 3s2 3p6 3d10 4s2 4p6 4d10 5s2 5p5
 
 Converged in 73 iterations to an ae energy of -193646.794 eV
 
   ============================================================                
   | Pseudopotential Report - Date of generation 18-02-2018   |                
   ------------------------------------------------------------                
   | Element: I Ionic charge:  7.00 Level of theory: PBE      |                
   | Atomic Solver: Koelling-Harmon                           |                
   |                                                          |                
   |               Reference Electronic Structure             |                
   |         Orbital         Occupation         Energy        |                
   |            5s              2.000           -0.640        |                
   |            5p              5.000           -0.260        |                
   |                                                          |                
   |                 Pseudopotential Definition               |                
   |        Beta     l      e      Rc     scheme   norm       |                
   |          1      0   -0.640   2.006     qc      0         |                
   |          2      0    0.250   2.006     qc      0         |                
   |          3      1   -0.260   2.006     qc      0         |                
   |          4      1    0.250   2.006     qc      0         |                
   |         loc     2    0.000   2.006     pn      0         |                
   |                                                          |                
   | Augmentation charge Rinner = 1.402                       |                
   | Partial core correction Rc = 1.402                       |                
   ------------------------------------------------------------                
   | "2|2.0|5|6|7|50:51"                                      |                
   ------------------------------------------------------------                
   |      Author: Chris J. Pickard, Cambridge University      |                
   ============================================================                
 
 Pseudo atomic calculation performed for Zr 4s2 4p6 4d2 5s2
 
 Converged in 30 iterations to a total energy of -1285.7947 eV
 
 
 Pseudo atomic calculation performed for I 5s2 5p5
 
 Converged in 19 iterations to a total energy of -794.3080 eV
 
 Calculation parallelised over 15 processes.
 Data is distributed by G-vector(3-way) and k-point(5-way)

 ************************************ Title ************************************
 

 ***************************** General Parameters ******************************
  
 output verbosity                               : normal  (1)
 write checkpoint data to                       : sim.check
 type of calculation                            : geometry optimization
 stress calculation                             : off
 density difference calculation                 : off
 electron localisation func (ELF) calculation   : off
 Hirshfeld analysis                             : off
 unlimited duration calculation
 timing information                             : on
 memory usage estimate                          : on
 write final potential to formatted file        : off
 write final density to formatted file          : on
 write structure in CELL formatted file         : on
 write BibTeX reference list                    : on
 write OTFG pseudopotential files               : on
 write electrostatic potential file             : on
 write bands file                               : on
 checkpoint writing                             : both castep_bin and check files
  
 output         length unit                     : A
 output           mass unit                     : amu
 output           time unit                     : ps
 output         charge unit                     : e
 output           spin unit                     : hbar/2
 output         energy unit                     : eV
 output          force unit                     : eV/A
 output       velocity unit                     : A/ps
 output       pressure unit                     : GPa
 output     inv_length unit                     : 1/A
 output      frequency unit                     : cm-1
 output force constant unit                     : eV/A**2
 output         volume unit                     : A**3
 output   IR intensity unit                     : (D/A)**2/amu
 output         dipole unit                     : D
 output         efield unit                     : eV/A/e
 output        entropy unit                     : J/mol/K
  
 wavefunctions paging                           : none
 random number generator seed                   : randomised (133609965)
 data distribution                              : optimal for this architecture
 optimization strategy                          : maximize speed(+++)

 *********************** Exchange-Correlation Parameters ***********************
  
 using functional                               : Perdew Burke Ernzerhof
 relativistic treatment                         : Koelling-Harmon
 DFT+D: Semi-empirical dispersion correction    : off

 ************************* Pseudopotential Parameters **************************
  
 pseudopotential representation                 : reciprocal space
 <beta|phi> representation                      : reciprocal space
 spin-orbit coupling                            : off

 **************************** Basis Set Parameters *****************************
  
 plane wave basis set cut-off                   :   360.0000   eV
 size of standard grid                          :     1.7500
 size of   fine   gmax                          :    17.0109   1/A
 finite basis set correction                    : none

 **************************** Electronic Parameters ****************************
  
 number of  electrons                           :  1003.    
 net charge of system                           :  0.000    
 net spin   of system                           :  1.000    
 number of  up  spins                           :  502.0    
 number of down spins                           :  501.0    
 treating system as spin-polarized
 number of bands                                :        602

 ********************* Electronic Minimization Parameters **********************
  
 Method: Treating system as metallic with density mixing treatment of electrons,
         and number of  SD  steps               :          1
         and number of  CG  steps               :          4
  
 total energy / atom convergence tol.           : 0.1000E-06   eV
 eigen-energy convergence tolerance             : 0.1673E-07   eV
 max force / atom convergence tol.              : ignored
 convergence tolerance window                   :          3   cycles
 max. number of SCF cycles                      :        200
 number of fixed-spin iterations                :         10
 smearing scheme                                : Gaussian
 smearing width                                 : 0.1000       eV
 Fermi energy convergence tolerance             : 0.2721E-13   eV
 periodic dipole correction                     : NONE

 ************************** Density Mixing Parameters **************************
  
 density-mixing scheme                          : Pulay
 max. length of mixing history                  :         20
 charge density mixing amplitude                : 0.8000    
   spin density mixing amplitude                :  2.000    
 cut-off energy for mixing                      :  360.0       eV

 *********************** Population Analysis Parameters ************************
  
 Population analysis with cutoff                :  3.000       A

 ********************** Geometry Optimization Parameters ***********************
  
 optimization method                            : LBFGS
 max. no. of LBFGS updates                      : unbounded
 variable cell method                           : fixed basis quality
 max. number of steps                           :        200
 estimated bulk modulus                         :  500.0       GPa
 estimated <frequency>                          :  1668.       cm-1
 geom line minimiser                            : on
 with line minimiser tolerance                  :     0.4000
  with spin fully able to relax for all steps
 total energy convergence tolerance             : 0.1000E-05   eV/atom
        max ionic |force| tolerance             : 0.1000E-01   eV/A
 max ionic |displacement| tolerance             : 0.1000E-02   A
   max |stress component| tolerance             : 0.1000       GPa
 convergence tolerance window                   :          2   steps
 backup results every                           :          5   steps
 write geom trajectory file                     : on

 *******************************************************************************
  
 
                           -------------------------------
                                      Unit Cell
                           -------------------------------
        Real Lattice(A)                      Reciprocal Lattice(1/A)
   5.1641000   0.0000000   0.0000000        1.2167048   0.0000000  -0.0701773
   0.0000000   8.5460413   0.0000000        0.0000000   0.7352159  -0.5614181
   2.5820500  34.1841652  44.7665333        0.0000000   0.0000000   0.1403545
 
                       Lattice parameters(A)       Cell Angles
                    a =    5.164100          alpha =   52.680175
                    b =    8.546041          beta  =   87.375324
                    c =   56.384986          gamma =   90.000000
 
                       Current cell volume = 1975.664040       A**3
                                   density =    3.896663   AMU/A**3
                                           =    6.470560     g/cm^3
 
                           -------------------------------
                                     Cell Contents
                           -------------------------------
                         Total number of ions in cell =   84
                      Total number of species in cell =    2
                        Max number of any one species =   83
 
            xxxxxxxxxxxxxxxxxxxxxxxxxxxxxxxxxxxxxxxxxxxxxxxxxxxxxxxxxxxx
            x  Element    Atom        Fractional coordinates of atoms  x
            x            Number           u          v          w      x
            x----------------------------------------------------------x
            x  Zr           1         0.733694   0.167562   0.509060   x 
            x  Zr           2         0.735300   0.273110   0.556176   x 
            x  Zr           3         0.701914   0.727745   0.534568   x 
            x  Zr           4         0.698217   0.916852   0.628078   x 
            x  Zr           5         0.698779   0.372960   0.603097   x 
            x  Zr           6         0.718230   0.825203   0.580278   x 
            x  Zr           7         0.666419   0.019614   0.674802   x 
            x  Zr           8         0.681365   0.465264   0.650984   x 
            x  Zr           9         0.645134   0.109438   0.722704   x 
            x  Zr          10         0.647805   0.561794   0.698557   x 
            x  Zr          11         0.599840   0.750747   0.793715   x 
            x  Zr          12         0.616533   0.206226   0.769934   x 
            x  Zr          13         0.620384   0.660317   0.745516   x 
            x  Zr          14         0.569453   0.853245   0.840623   x 
            x  Zr          15         0.588454   0.305845   0.816699   x 
            x  Zr          16         0.548258   0.951703   0.887782   x 
            x  Zr          17         0.567056   0.397085   0.865402   x 
            x  Zr          18         0.517892   0.595471   0.959060   x 
            x  Zr          19         0.533237   0.042400   0.937221   x 
            x  Zr          20         0.532604   0.499619   0.912017   x 
            x  Zr          21         0.467108   0.165367   0.978531   x 
            x  Zr          22         0.269602   0.332049   0.521720   x 
            x  Zr          23         0.217226  -0.001604   0.589623   x 
            x  Zr          24         0.201201   0.458938   0.562695   x 
            x  Zr          25         0.230290   0.913039   0.540677   x 
            x  Zr          26         0.189844   0.101832   0.635163   x 
            x  Zr          27         0.199676   0.544253   0.612277   x 
            x  Zr          28         0.165658   0.190427   0.684041   x 
            x  Zr          29         0.169439   0.645473   0.659387   x 
            x  Zr          30         0.118915   0.837481   0.754240   x 
            x  Zr          31         0.134658   0.292284   0.730898   x 
            x  Zr          32         0.136883   0.748380   0.706165   x 
            x  Zr          33         0.098452   0.937365   0.800391   x 
            x  Zr          34         0.111932   0.391488   0.777292   x 
            x  Zr          35         0.066919   0.039950   0.847276   x 
            x  Zr          36         0.085709   0.483973   0.825386   x 
            x  Zr          37         0.032145   0.684796   0.918820   x 
            x  Zr          38         0.050385   0.137794   0.895774   x 
            x  Zr          39         0.062822   0.584273   0.871920   x 
            x  Zr          40         0.032974   0.789367   0.962813   x 
            x  Zr          41         0.001046   0.228415   0.943838   x 
            x  Zr          42         0.733484   0.751532   0.012090   x 
            x  Zr          43         0.701824  -0.018694   0.037465   x 
            x  Zr          44         0.736172   0.269829   0.056262   x 
            x  Zr          45         0.714480   0.528348   0.081231   x 
            x  Zr          46         0.698487   0.792346   0.105913   x 
            x  Zr          47         0.696643   0.061007   0.128106   x 
            x  Zr          48         0.678924   0.319507   0.152153   x 
            x  Zr          49         0.665215   0.583225   0.175162   x 
            x  Zr          50         0.647791   0.846931   0.198830   x 
            x  Zr          51         0.646106   0.105741   0.222692   x 
            x  Zr          52         0.622933   0.372277   0.245765   x 
            x  Zr          53         0.616559   0.631803   0.270095   x 
            x  Zr          54         0.602945   0.896234   0.293559   x 
            x  Zr          55         0.599015   0.164474   0.316065   x 
            x  Zr          56         0.582101   0.418439   0.341202   x 
            x  Zr          57         0.579577   0.687303   0.363619   x 
            x  Zr          58         0.554158   0.946527   0.388064   x 
            x  Zr          59         0.532220   0.210710   0.412102   x 
            x  Zr          60         0.537285   0.477270   0.434384   x 
            x  Zr          61         0.533365   0.729677   0.459649   x 
            x  Zr          62         0.463475   1.019059   0.478099   x 
            x  Zr          63         0.281759   0.496193   0.020432   x 
            x  Zr          64         0.229779   0.769358   0.040570   x 
            x  Zr          65         0.201584   0.022762   0.065281   x 
            x  Zr          66         0.206080   0.289665   0.087767   x 
            x  Zr          67         0.198951   0.544394   0.112440   x 
            x  Zr          68         0.184461   0.811886   0.136110   x 
            x  Zr          69         0.169158   0.080630   0.159410   x 
            x  Zr          70         0.165458   0.334168   0.183958   x 
            x  Zr          71         0.137134   0.603308   0.206290   x 
            x  Zr          72         0.134948   0.856189   0.231081   x 
            x  Zr          73         0.130010   0.124119   0.253490   x 
            x  Zr          74         0.114895   0.387514   0.277491   x 
            x  Zr          75         0.100205   0.646566   0.302630   x 
            x  Zr          76         0.098488   0.916410   0.324776   x 
            x  Zr          77         0.079572   0.176193   0.348294   x 
            x  Zr          78         0.065695   0.438175   0.372045   x 
            x  Zr          79         0.063777   0.706655   0.394036   x 
            x  Zr          80         0.033996   0.976322   0.418966   x 
            x  Zr          81        -0.001548   0.228480   0.443857   x 
            x  Zr          82         0.051443   0.518138   0.461659   x 
            x  Zr          83         0.033397   0.730196   0.490568   x 
            x  I            1         0.014548   0.341590   0.991140   x 
            xxxxxxxxxxxxxxxxxxxxxxxxxxxxxxxxxxxxxxxxxxxxxxxxxxxxxxxxxxxx
 
 
                         No user defined ionic velocities
 
                           -------------------------------
                                   Details of Species
                           -------------------------------
 
                               Mass of species in AMU
                                    Zr   91.2240000
                                    I  126.9044700
 
                          Electric Quadrupole Moment (Barn)
                                    Zr   -0.1760000 Isotope 91
                                    I   -0.6960000 Isotope127
 
                          Files used for pseudopotentials:
                                    Zr 3|2.1|7|8|9|40U:50:41:42
                                    I 2|2.0|5|6|7|50:51
 
                           -------------------------------
                              k-Points For BZ Sampling
                           -------------------------------
                       MP grid size for SCF calculation is  5  4  1
                            with an offset of   0.000  0.000  0.000
                       Number of kpoints used =            10
 
                           -------------------------------
                               Symmetry and Constraints
                           -------------------------------
 
                      Maximum deviation from symmetry =  0.00000         ANG
 
                      Number of symmetry operations   =           1
                      Number of ionic constraints     =           3
                      Point group of crystal =     1: C1, 1, 1
                      Space group of crystal =     1: P1, P 1
 
             Set iprint > 1 for details on symmetry rotations/translations
 
                         Centre of mass is constrained
             Set iprint > 1 for details of linear ionic constraints
 
                         Number of cell constraints= 6
                         Cell constraints are:  0 0 0 0 0 0
 
                         External pressure/stress (GPa)
                          0.00000   0.00000   0.00000
                                    0.00000   0.00000
                                              0.00000
  
+---------------- MEMORY AND SCRATCH DISK ESTIMATES PER PROCESS --------------+
|                                                     Memory          Disk    |
| Baseline code, static data and system overhead      236.0 MB         0.0 MB |
| BLAS internal memory storage                          0.0 MB         0.0 MB |
| Model and support data                             1136.7 MB         0.0 MB |
| Electronic energy minimisation requirements        1065.6 MB         0.0 MB |
| Force calculation requirements                       48.7 MB         0.0 MB |
|                                               ----------------------------- |
| Approx. total storage required per process         2438.3 MB         0.0 MB |
|                                                                             |
| Requirements will fluctuate during execution and may exceed these estimates |
+-----------------------------------------------------------------------------+
Calculating total energy with cut-off of  360.000 eV.
------------------------------------------------------------------------ <-- SCF
SCF loop      Energy           Fermi           Energy gain       Timer   <-- SCF
                               energy          per atom          (sec)   <-- SCF
------------------------------------------------------------------------ <-- SCF
Initial  -9.00758994E+004  0.00000000E+000                        91.20  <-- SCF
      1  -1.04998061E+005  1.19722754E+001   1.77644779E+002     960.33  <-- SCF
      2  -1.07945350E+005  1.00799982E+001   3.50867712E+001    1457.19  <-- SCF
      3  -1.08130550E+005  9.90200208E+000   2.20476476E+000    2020.50  <-- SCF
      4  -1.08130864E+005  9.68322330E+000   3.74137246E-003    2725.49  <-- SCF
      5  -1.08128896E+005  9.71738729E+000  -2.34265792E-002    3480.85  <-- SCF
      6  -1.08127755E+005  9.71102984E+000  -1.35826314E-002    4153.89  <-- SCF
      7  -1.08127417E+005  9.70215870E+000  -4.02279243E-003    4809.58  <-- SCF
      8  -1.08127351E+005  9.70565726E+000  -7.91445433E-004    5448.03  <-- SCF
      9  -1.08127333E+005  9.70169847E+000  -2.15297322E-004    6092.47  <-- SCF
     10  -1.08127333E+005  9.70343187E+000   5.88960393E-006    6741.68  <-- SCF
     11  -1.08127338E+005  9.70232325E+000   5.30662640E-005    7375.23  <-- SCF
     12  -1.08127334E+005  9.70346115E+000  -4.44510817E-005    7987.99  <-- SCF
     13  -1.08127334E+005  9.70310030E+000  -1.96103865E-007    8548.99  <-- SCF
     14  -1.08127334E+005  9.70321045E+000  -8.28825812E-007    9086.98  <-- SCF
     15  -1.08127334E+005  9.70320238E+000   1.18020526E-007    9517.15  <-- SCF
     16  -1.08127334E+005  9.70318003E+000   4.03196114E-010    9918.64  <-- SCF
     17  -1.08127334E+005  9.70319653E+000   1.80106540E-008   10321.58  <-- SCF
------------------------------------------------------------------------ <-- SCF
 
Integrated Spin Density     =    0.115907E-01 hbar/2                        
Integrated |Spin Density|   =    0.474698E-01 hbar/2                        
 
Final energy, E             =  -108126.9113231     eV
Final free energy (E-TS)    =  -108127.3339684     eV
(energies not corrected for finite basis set)
 
NB est. 0K energy (E-0.5TS)      =  -108127.1226458     eV
 

Writing analysis data to sim.castep_bin

Writing model to sim.check
 
+---------------- MEMORY AND SCRATCH DISK ESTIMATES PER PROCESS --------------+
|                                                     Memory          Disk    |
| Model and support data                             1133.4 MB         0.0 MB |
| Electronic energy minimisation requirements        1065.6 MB         0.0 MB |
| Geometry minimisation requirements                 1466.9 MB         0.0 MB |
|                                               ----------------------------- |
| Approx. total storage required per process         3666.0 MB         0.0 MB |
|                                                                             |
| Requirements will fluctuate during execution and may exceed these estimates |
+-----------------------------------------------------------------------------+
 
 
 ******************************** Constrained Forces ********************************
 *                                                                                  *
 *                           Cartesian components (eV/A)                            *
 * -------------------------------------------------------------------------------- *
 *                         x                    y                    z              *
 *                                                                                  *
 * Zr              1      0.00094              0.00022              0.00118         *
 * Zr              2      0.00235              0.00235             -0.00136         *
 * Zr              3     -0.00086              0.00368              0.00093         *
 * Zr              4     -0.00104              0.00425             -0.00148         *
 * Zr              5      0.00327             -0.00156             -0.00135         *
 * Zr              6     -0.00102             -0.00120             -0.00213         *
 * Zr              7      0.00061             -0.00125             -0.00319         *
 * Zr              8     -0.00238             -0.00290              0.00157         *
 * Zr              9      0.00042             -0.00365             -0.00113         *
 * Zr             10      0.00501             -0.00349              0.01387         *
 * Zr             11      0.00581              0.00964              0.01695         *
 * Zr             12      0.00015              0.00746             -0.00649         *
 * Zr             13     -0.00678             -0.00923              0.00573         *
 * Zr             14     -0.01273             -0.03226             -0.02338         *
 * Zr             15     -0.00784             -0.00824              0.01021         *
 * Zr             16     -0.01337             -0.07231              0.10666         *
 * Zr             17     -0.01587              0.02438             -0.02253         *
 * Zr             18      0.13023             -0.08384             -0.03109         *
 * Zr             19      0.03188             -0.01219              0.11710         *
 * Zr             20      0.13417             -0.06406             -0.10508         *
 * Zr             21     -0.46454             -0.01145              0.00110         *
 * Zr             22      0.00303              0.00033             -0.00041         *
 * Zr             23      0.00042             -0.00076             -0.00029         *
 * Zr             24     -0.00182             -0.00192             -0.00166         *
 * Zr             25     -0.00132             -0.00285             -0.00111         *
 * Zr             26      0.00496             -0.00040              0.00060         *
 * Zr             27      0.00414             -0.00096             -0.00393         *
 * Zr             28     -0.00152             -0.00304              0.00919         *
 * Zr             29      0.00199              0.00452             -0.00120         *
 * Zr             30      0.00209             -0.00254             -0.00602         *
 * Zr             31      0.00082              0.00136             -0.00038         *
 * Zr             32     -0.00381              0.00524              0.00218         *
 * Zr             33     -0.01382             -0.00759              0.00142         *
 * Zr             34      0.01305              0.01094             -0.00132         *
 * Zr             35      0.00159             -0.02255             -0.00169         *
 * Zr             36      0.01279              0.01532              0.02008         *
 * Zr             37      0.15131              0.11703             -0.12092         *
 * Zr             38      0.01560              0.00289              0.03290         *
 * Zr             39      0.04128             -0.03390             -0.01930         *
 * Zr             40     -0.10540              0.06422              0.03477         *
 * Zr             41     -0.09363             -0.13408             -0.08031         *
 * Zr             42     -0.07784              0.22550              0.00052         *
 * Zr             43      0.26749             -0.20241             -0.12204         *
 * Zr             44     -0.27170              0.33850              0.21443         *
 * Zr             45     -0.06658             -0.08992              0.05740         *
 * Zr             46     -0.02909             -0.04023             -0.08512         *
 * Zr             47     -0.03815              0.00320             -0.06197         *
 * Zr             48     -0.01424             -0.01080             -0.00871         *
 * Zr             49     -0.00262              0.02012              0.00826         *
 * Zr             50      0.00257              0.00194              0.00313         *
 * Zr             51      0.00611              0.00163              0.00099         *
 * Zr             52      0.00333              0.00267             -0.00632         *
 * Zr             53     -0.00020             -0.00341             -0.00718         *
 * Zr             54     -0.00099              0.00166             -0.00130         *
 * Zr             55      0.00432             -0.00205              0.00122         *
 * Zr             56      0.00433              0.00065              0.00463         *
 * Zr             57      0.00467             -0.00027              0.00219         *
 * Zr             58     -0.00151             -0.00160             -0.00018         *
 * Zr             59      0.00006              0.00036              0.00027         *
 * Zr             60      0.00158              0.00134             -0.00214         *
 * Zr             61      0.00231             -0.00059             -0.00340         *
 * Zr             62      0.00215             -0.00427             -0.00203         *
 * Zr             63     -0.08621              0.23645              0.23584         *
 * Zr             64      0.00387             -0.22127              0.21772         *
 * Zr             65      0.30127             -0.29521              0.26264         *
 * Zr             66      0.06337             -0.05963             -0.16000         *
 * Zr             67      0.07372              0.06690             -0.07294         *
 * Zr             68      0.02858             -0.01275             -0.02488         *
 * Zr             69     -0.00539             -0.00522              0.01619         *
 * Zr             70      0.00696              0.00407             -0.01513         *
 * Zr             71      0.00102             -0.01088              0.00478         *
 * Zr             72      0.00116             -0.00079              0.00063         *
 * Zr             73      0.00361             -0.00328             -0.00385         *
 * Zr             74      0.00090              0.00316              0.00787         *
 * Zr             75     -0.00433             -0.00461              0.00009         *
 * Zr             76     -0.00426              0.00375             -0.00000         *
 * Zr             77     -0.00113             -0.00193              0.00169         *
 * Zr             78     -0.00107             -0.00185              0.00048         *
 * Zr             79     -0.00136             -0.00106              0.00068         *
 * Zr             80      0.00143              0.00024             -0.00011         *
 * Zr             81     -0.00168              0.00209             -0.00320         *
 * Zr             82     -0.00137              0.00235              0.00047         *
 * Zr             83     -0.00063              0.00086              0.00040         *
 * I               1      0.00536              0.30100             -0.40072         *
 *                                                                                  *
 ************************************************************************************
 LBFGS: finished iteration     0 with enthalpy= -1.08127334E+005 eV
  
 +-----------+-----------------+-----------------+------------+-----+ <-- LBFGS
 | Parameter |      value      |    tolerance    |    units   | OK? | <-- LBFGS
 +-----------+-----------------+-----------------+------------+-----+ <-- LBFGS
 |  dE/ion   |   0.000000E+000 |   1.000000E-006 |         eV | No  | <-- LBFGS
 |  |F|max   |   5.012041E-001 |   1.000000E-002 |       eV/A | No  | <-- LBFGS
 |  |dR|max  |   0.000000E+000 |   1.000000E-003 |          A | No  | <-- LBFGS
 +-----------+-----------------+-----------------+------------+-----+ <-- LBFGS
  

================================================================================
 Starting LBFGS iteration          1 ...
================================================================================
  
 +------------+-------------+-------------+-----------------+ <-- min LBFGS
 |    Step    |   lambda    |   F.delta'  |    enthalpy     | <-- min LBFGS
 +------------+-------------+-------------+-----------------+ <-- min LBFGS
 |  previous  |    0.000000 |    0.318619 |  -108127.333968 | <-- min LBFGS
 +------------+-------------+-------------+-----------------+ <-- min LBFGS
  

--------------------------------------------------------------------------------
 LBFGS: starting iteration         1 with trial guess (lambda=  1.000000)
--------------------------------------------------------------------------------
 
                           -------------------------------
                                     Cell Contents
                           -------------------------------
 
            xxxxxxxxxxxxxxxxxxxxxxxxxxxxxxxxxxxxxxxxxxxxxxxxxxxxxxxxxxxxxxxxx
            x  Element         Atom        Fractional coordinates of atoms  x
            x                 Number           u          v          w      x
            x---------------------------------------------------------------x
            x  Zr                1         0.733694   0.167562   0.509060   x
            x  Zr                2         0.735300   0.273111   0.556176   x
            x  Zr                3         0.701914   0.727746   0.534568   x
            x  Zr                4         0.698217   0.916853   0.628078   x
            x  Zr                5         0.698779   0.372960   0.603097   x
            x  Zr                6         0.718230   0.825204   0.580278   x
            x  Zr                7         0.666419   0.019614   0.674802   x
            x  Zr                8         0.681365   0.465263   0.650984   x
            x  Zr                9         0.645134   0.109437   0.722704   x
            x  Zr               10         0.647806   0.561793   0.698557   x
            x  Zr               11         0.599841   0.750747   0.793715   x
            x  Zr               12         0.616533   0.206228   0.769933   x
            x  Zr               13         0.620383   0.660315   0.745516   x
            x  Zr               14         0.569451   0.853244   0.840623   x
            x  Zr               15         0.588452   0.305843   0.816700   x
            x  Zr               16         0.548254   0.951684   0.887784   x
            x  Zr               17         0.567053   0.397090   0.865402   x
            x  Zr               18         0.517920   0.595463   0.959060   x
            x  Zr               19         0.533242   0.042388   0.937224   x
            x  Zr               20         0.532633   0.499621   0.912014   x
            x  Zr               21         0.467012   0.165366   0.978531   x
            x  Zr               22         0.269602   0.332050   0.521720   x
            x  Zr               23         0.217226  -0.001604   0.589623   x
            x  Zr               24         0.201200   0.458938   0.562695   x
            x  Zr               25         0.230290   0.913039   0.540677   x
            x  Zr               26         0.189845   0.101832   0.635164   x
            x  Zr               27         0.199677   0.544253   0.612277   x
            x  Zr               28         0.165658   0.190426   0.684041   x
            x  Zr               29         0.169439   0.645474   0.659387   x
            x  Zr               30         0.118915   0.837481   0.754240   x
            x  Zr               31         0.134658   0.292284   0.730898   x
            x  Zr               32         0.136882   0.748381   0.706165   x
            x  Zr               33         0.098449   0.937364   0.800391   x
            x  Zr               34         0.111935   0.391489   0.777292   x
            x  Zr               35         0.066919   0.039948   0.847276   x
            x  Zr               36         0.085712   0.483973   0.825386   x
            x  Zr               37         0.032178   0.684822   0.918817   x
            x  Zr               38         0.050388   0.137792   0.895775   x
            x  Zr               39         0.062831   0.584271   0.871920   x
            x  Zr               40         0.032952   0.789372   0.962814   x
            x  Zr               41         0.001027   0.228406   0.943836   x
            x  Zr               42         0.733468   0.751560   0.012090   x
            x  Zr               43         0.701881  -0.018708   0.037462   x
            x  Zr               44         0.736113   0.269851   0.056268   x
            x  Zr               45         0.714465   0.528331   0.081232   x
            x  Zr               46         0.698482   0.792349   0.105911   x
            x  Zr               47         0.696636   0.061013   0.128104   x
            x  Zr               48         0.678922   0.319506   0.152152   x
            x  Zr               49         0.665214   0.583227   0.175163   x
            x  Zr               50         0.647792   0.846930   0.198830   x
            x  Zr               51         0.646107   0.105741   0.222692   x
            x  Zr               52         0.622933   0.372278   0.245765   x
            x  Zr               53         0.616559   0.631804   0.270095   x
            x  Zr               54         0.602945   0.896235   0.293559   x
            x  Zr               55         0.599016   0.164474   0.316065   x
            x  Zr               56         0.582102   0.418439   0.341202   x
            x  Zr               57         0.579578   0.687302   0.363619   x
            x  Zr               58         0.554158   0.946527   0.388064   x
            x  Zr               59         0.532220   0.210710   0.412102   x
            x  Zr               60         0.537285   0.477271   0.434384   x
            x  Zr               61         0.533366   0.729678   0.459649   x
            x  Zr               62         0.463475   1.019058   0.478099   x
            x  Zr               63         0.281738   0.496200   0.020438   x
            x  Zr               64         0.229777   0.769309   0.040575   x
            x  Zr               65         0.201643   0.022700   0.065287   x
            x  Zr               66         0.206095   0.289673   0.087764   x
            x  Zr               67         0.198967   0.544409   0.112438   x
            x  Zr               68         0.184467   0.811887   0.136109   x
            x  Zr               69         0.169156   0.080628   0.159411   x
            x  Zr               70         0.165459   0.334169   0.183958   x
            x  Zr               71         0.137134   0.603306   0.206290   x
            x  Zr               72         0.134949   0.856189   0.231081   x
            x  Zr               73         0.130011   0.124119   0.253490   x
            x  Zr               74         0.114895   0.387513   0.277492   x
            x  Zr               75         0.100204   0.646566   0.302630   x
            x  Zr               76         0.098487   0.916411   0.324776   x
            x  Zr               77         0.079572   0.176193   0.348294   x
            x  Zr               78         0.065695   0.438174   0.372045   x
            x  Zr               79         0.063777   0.706655   0.394036   x
            x  Zr               80         0.033997   0.976322   0.418966   x
            x  Zr               81        -0.001548   0.228480   0.443857   x
            x  Zr               82         0.051443   0.518138   0.461659   x
            x  Zr               83         0.033397   0.730196   0.490568   x
            x  I                 1         0.014554   0.341666   0.991130   x
            xxxxxxxxxxxxxxxxxxxxxxxxxxxxxxxxxxxxxxxxxxxxxxxxxxxxxxxxxxxxxxxxx
 
 
------------------------------------------------------------------------ <-- SCF
SCF loop      Energy           Fermi           Energy gain       Timer   <-- SCF
                               energy          per atom          (sec)   <-- SCF
------------------------------------------------------------------------ <-- SCF
Initial  -1.08126914E+005  0.00000000E+000                     11314.52  <-- SCF
      1  -1.08127336E+005  9.70318554E+000   5.01521199E-003   11858.02  <-- SCF
      2  -1.08127336E+005  9.70318552E+000   1.44152702E-007   12335.67  <-- SCF
      3  -1.08127336E+005  9.70317951E+000   3.68833847E-008   12770.52  <-- SCF
      4  -1.08127336E+005  9.70318196E+000  -2.44710726E-008   13183.78  <-- SCF
------------------------------------------------------------------------ <-- SCF
 
Integrated Spin Density     =    0.974829E-02 hbar/2                        
Integrated |Spin Density|   =    0.413989E-01 hbar/2                        
 
Final energy, E             =  -108126.9130799     eV
Final free energy (E-TS)    =  -108127.3357009     eV
(energies not corrected for finite basis set)
 
NB est. 0K energy (E-0.5TS)      =  -108127.1243904     eV
 
 
 ******************************** Constrained Forces ********************************
 *                                                                                  *
 *                           Cartesian components (eV/A)                            *
 * -------------------------------------------------------------------------------- *
 *                         x                    y                    z              *
 *                                                                                  *
 * Zr              1      0.00100              0.00032              0.00104         *
 * Zr              2      0.00224              0.00221             -0.00160         *
 * Zr              3     -0.00077              0.00349              0.00080         *
 * Zr              4     -0.00097              0.00398             -0.00167         *
 * Zr              5      0.00324             -0.00149             -0.00157         *
 * Zr              6     -0.00103             -0.00137             -0.00223         *
 * Zr              7      0.00061             -0.00119             -0.00307         *
 * Zr              8     -0.00231             -0.00302              0.00143         *
 * Zr              9      0.00046             -0.00368             -0.00108         *
 * Zr             10      0.00489             -0.00350              0.01362         *
 * Zr             11      0.00564              0.00917              0.01641         *
 * Zr             12      0.00019              0.00722             -0.00630         *
 * Zr             13     -0.00658             -0.00906              0.00574         *
 * Zr             14     -0.01236             -0.03156             -0.02238         *
 * Zr             15     -0.00774             -0.00816              0.01010         *
 * Zr             16     -0.01270             -0.07154              0.10474         *
 * Zr             17     -0.01527              0.02370             -0.02171         *
 * Zr             18      0.12790             -0.08292             -0.03090         *
 * Zr             19      0.03057             -0.01216              0.11352         *
 * Zr             20      0.13099             -0.06156             -0.10170         *
 * Zr             21     -0.45627             -0.01139              0.00181         *
 * Zr             22      0.00303              0.00002             -0.00049         *
 * Zr             23      0.00048             -0.00091             -0.00052         *
 * Zr             24     -0.00171             -0.00195             -0.00191         *
 * Zr             25     -0.00117             -0.00260             -0.00120         *
 * Zr             26      0.00488             -0.00046              0.00041         *
 * Zr             27      0.00410             -0.00098             -0.00399         *
 * Zr             28     -0.00143             -0.00299              0.00894         *
 * Zr             29      0.00199              0.00421             -0.00119         *
 * Zr             30      0.00205             -0.00255             -0.00583         *
 * Zr             31      0.00084              0.00117             -0.00031         *
 * Zr             32     -0.00365              0.00508              0.00221         *
 * Zr             33     -0.01338             -0.00743              0.00125         *
 * Zr             34      0.01282              0.01068             -0.00119         *
 * Zr             35      0.00163             -0.02176             -0.00137         *
 * Zr             36      0.01264              0.01471              0.01960         *
 * Zr             37      0.14817              0.11359             -0.11802         *
 * Zr             38      0.01509              0.00236              0.03241         *
 * Zr             39      0.04016             -0.03292             -0.01895         *
 * Zr             40     -0.10279              0.06318              0.03334         *
 * Zr             41     -0.09188             -0.13090             -0.07864         *
 * Zr             42     -0.07570              0.21995              0.00036         *
 * Zr             43      0.26292             -0.19686             -0.12042         *
 * Zr             44     -0.26577              0.32976              0.21102         *
 * Zr             45     -0.06567             -0.08861              0.05675         *
 * Zr             46     -0.02843             -0.03898             -0.08274         *
 * Zr             47     -0.03733              0.00333             -0.06047         *
 * Zr             48     -0.01410             -0.01071             -0.00836         *
 * Zr             49     -0.00264              0.01903              0.00806         *
 * Zr             50      0.00254              0.00200              0.00303         *
 * Zr             51      0.00599              0.00158              0.00093         *
 * Zr             52      0.00331              0.00248             -0.00610         *
 * Zr             53     -0.00013             -0.00341             -0.00696         *
 * Zr             54     -0.00091              0.00150             -0.00121         *
 * Zr             55      0.00425             -0.00202              0.00118         *
 * Zr             56      0.00428              0.00052              0.00456         *
 * Zr             57      0.00464             -0.00035              0.00223         *
 * Zr             58     -0.00147             -0.00162             -0.00004         *
 * Zr             59      0.00001              0.00025              0.00057         *
 * Zr             60      0.00150              0.00122             -0.00176         *
 * Zr             61      0.00227             -0.00056             -0.00301         *
 * Zr             62      0.00218             -0.00436             -0.00191         *
 * Zr             63     -0.08559              0.23247              0.23220         *
 * Zr             64      0.00379             -0.21501              0.21197         *
 * Zr             65      0.29483             -0.28731              0.25623         *
 * Zr             66      0.06179             -0.05892             -0.15485         *
 * Zr             67      0.07209              0.06456             -0.07013         *
 * Zr             68      0.02838             -0.01313             -0.02477         *
 * Zr             69     -0.00508             -0.00498              0.01575         *
 * Zr             70      0.00694              0.00371             -0.01458         *
 * Zr             71      0.00105             -0.01052              0.00460         *
 * Zr             72      0.00117             -0.00081              0.00058         *
 * Zr             73      0.00353             -0.00323             -0.00365         *
 * Zr             74      0.00089              0.00298              0.00778         *
 * Zr             75     -0.00420             -0.00459              0.00014         *
 * Zr             76     -0.00412              0.00363             -0.00001         *
 * Zr             77     -0.00108             -0.00199              0.00163         *
 * Zr             78     -0.00098             -0.00190              0.00061         *
 * Zr             79     -0.00132             -0.00103              0.00091         *
 * Zr             80      0.00148              0.00015              0.00011         *
 * Zr             81     -0.00143              0.00189             -0.00278         *
 * Zr             82     -0.00125              0.00213              0.00069         *
 * Zr             83     -0.00053              0.00080              0.00060         *
 * I               1      0.00429              0.29995             -0.39831         *
 *                                                                                  *
 ************************************************************************************
  
 +------------+-------------+-------------+-----------------+ <-- min LBFGS
 |    Step    |   lambda    |   F.delta'  |    enthalpy     | <-- min LBFGS
 +------------+-------------+-------------+-----------------+ <-- min LBFGS
 |  previous  |    0.000000 |    0.318619 |  -108127.333968 | <-- min LBFGS
 | trial step |    1.000000 |    0.312439 |  -108127.335701 | <-- min LBFGS
 +------------+-------------+-------------+-----------------+ <-- min LBFGS
  

--------------------------------------------------------------------------------
 LBFGS: improving iteration         1 with line minimization (lambda= 51.553675)
--------------------------------------------------------------------------------
 
                           -------------------------------
                                     Cell Contents
                           -------------------------------
 
            xxxxxxxxxxxxxxxxxxxxxxxxxxxxxxxxxxxxxxxxxxxxxxxxxxxxxxxxxxxxxxxxx
            x  Element         Atom        Fractional coordinates of atoms  x
            x                 Number           u          v          w      x
            x---------------------------------------------------------------x
            x  Zr                1         0.733703   0.167557   0.509062   x
            x  Zr                2         0.735326   0.273132   0.556175   x
            x  Zr                3         0.701904   0.727764   0.534569   x
            x  Zr                4         0.698207   0.916887   0.628076   x
            x  Zr                5         0.698814   0.372957   0.603095   x
            x  Zr                6         0.718220   0.825206   0.580275   x
            x  Zr                7         0.666427   0.019622   0.674798   x
            x  Zr                8         0.681339   0.465237   0.650986   x
            x  Zr                9         0.645139   0.109420   0.722703   x
            x  Zr               10         0.647850   0.561704   0.698574   x
            x  Zr               11         0.599891   0.750726   0.793736   x
            x  Zr               12         0.616538   0.206306   0.769926   x
            x  Zr               13         0.620309   0.660229   0.745523   x
            x  Zr               14         0.569332   0.853153   0.840594   x
            x  Zr               15         0.588364   0.305742   0.816712   x
            x  Zr               16         0.548050   0.950714   0.887913   x
            x  Zr               17         0.566901   0.397352   0.865375   x
            x  Zr               18         0.519298   0.595084   0.959022   x
            x  Zr               19         0.533504   0.041747   0.937365   x
            x  Zr               20         0.534097   0.499723   0.911888   x
            x  Zr               21         0.462160   0.165288   0.978533   x
            x  Zr               22         0.269634   0.332054   0.521719   x
            x  Zr               23         0.217231  -0.001607   0.589622   x
            x  Zr               24         0.201182   0.458933   0.562693   x
            x  Zr               25         0.230276   0.913026   0.540676   x
            x  Zr               26         0.189896   0.101827   0.635164   x
            x  Zr               27         0.199723   0.544266   0.612272   x
            x  Zr               28         0.165637   0.190363   0.684053   x
            x  Zr               29         0.169461   0.645508   0.659386   x
            x  Zr               30         0.118941   0.837494   0.754233   x
            x  Zr               31         0.134667   0.292295   0.730898   x
            x  Zr               32         0.136841   0.748403   0.706168   x
            x  Zr               33         0.098304   0.937309   0.800392   x
            x  Zr               34         0.112072   0.391565   0.777291   x
            x  Zr               35         0.066937   0.039813   0.847274   x
            x  Zr               36         0.085833   0.483973   0.825410   x
            x  Zr               37         0.033831   0.686143   0.918672   x
            x  Zr               38         0.050531   0.137651   0.895814   x
            x  Zr               39         0.063274   0.584150   0.871897   x
            x  Zr               40         0.031831   0.789609   0.962856   x
            x  Zr               41         0.000098   0.227946   0.943740   x
            x  Zr               42         0.732655   0.752980   0.012091   x
            x  Zr               43         0.704747  -0.019397   0.037315   x
            x  Zr               44         0.733147   0.270954   0.056526   x
            x  Zr               45         0.713735   0.527487   0.081301   x
            x  Zr               46         0.698229   0.792505   0.105808   x
            x  Zr               47         0.696275   0.061332   0.128030   x
            x  Zr               48         0.678778   0.319480   0.152142   x
            x  Zr               49         0.665182   0.583314   0.175173   x
            x  Zr               50         0.647817   0.846928   0.198834   x
            x  Zr               51         0.646170   0.105746   0.222693   x
            x  Zr               52         0.622972   0.372325   0.245757   x
            x  Zr               53         0.616561   0.631817   0.270086   x
            x  Zr               54         0.602936   0.896251   0.293558   x
            x  Zr               55         0.599060   0.164455   0.316066   x
            x  Zr               56         0.582144   0.418421   0.341207   x
            x  Zr               57         0.579625   0.687290   0.363622   x
            x  Zr               58         0.554142   0.946518   0.388064   x
            x  Zr               59         0.532221   0.210711   0.412102   x
            x  Zr               60         0.537303   0.477289   0.434381   x
            x  Zr               61         0.533392   0.729690   0.459645   x
            x  Zr               62         0.463499   1.019041   0.478096   x
            x  Zr               63         0.280696   0.496556   0.020722   x
            x  Zr               64         0.229687   0.766864   0.040838   x
            x  Zr               65         0.204631   0.019572   0.065603   x
            x  Zr               66         0.206853   0.290068   0.087571   x
            x  Zr               67         0.199781   0.545183   0.112350   x
            x  Zr               68         0.184780   0.811927   0.136079   x
            x  Zr               69         0.169090   0.080517   0.159430   x
            x  Zr               70         0.165541   0.334268   0.183939   x
            x  Zr               71         0.137142   0.603214   0.206296   x
            x  Zr               72         0.134960   0.856181   0.231082   x
            x  Zr               73         0.130051   0.124117   0.253486   x
            x  Zr               74         0.114900   0.387495   0.277501   x
            x  Zr               75         0.100159   0.646536   0.302630   x
            x  Zr               76         0.098443   0.916434   0.324776   x
            x  Zr               77         0.079559   0.176172   0.348296   x
            x  Zr               78         0.065683   0.438160   0.372046   x
            x  Zr               79         0.063762   0.706645   0.394037   x
            x  Zr               80         0.034012   0.976324   0.418966   x
            x  Zr               81        -0.001564   0.228509   0.443853   x
            x  Zr               82         0.051429   0.518151   0.461659   x
            x  Zr               83         0.033390   0.730200   0.490569   x
            x  I                 1         0.014851   0.345496   0.990648   x
            xxxxxxxxxxxxxxxxxxxxxxxxxxxxxxxxxxxxxxxxxxxxxxxxxxxxxxxxxxxxxxxxx
 
 
------------------------------------------------------------------------ <-- SCF
SCF loop      Energy           Fermi           Energy gain       Timer   <-- SCF
                               energy          per atom          (sec)   <-- SCF
------------------------------------------------------------------------ <-- SCF
Initial  -1.08127312E+005  0.00000000E+000                     14051.24  <-- SCF
      1  -1.08127360E+005  9.70289626E+000   5.71461428E-004   14584.06  <-- SCF
      2  -1.08127400E+005  9.70281596E+000   4.74070223E-004   15339.50  <-- SCF
      3  -1.08127410E+005  9.70208555E+000   1.23546846E-004   15997.95  <-- SCF
      4  -1.08127393E+005  9.70280539E+000  -2.04490790E-004   16637.20  <-- SCF
      5  -1.08127393E+005  9.70265280E+000  -4.51575228E-008   17288.09  <-- SCF
      6  -1.08127393E+005  9.70261496E+000  -3.36186555E-006   17865.11  <-- SCF
      7  -1.08127393E+005  9.70269526E+000   1.55040617E-007   18421.19  <-- SCF
      8  -1.08127393E+005  9.70265192E+000  -2.12545929E-007   18880.61  <-- SCF
      9  -1.08127393E+005  9.70264091E+000   6.24180583E-009   19290.44  <-- SCF
     10  -1.08127393E+005  9.70265029E+000   6.83886606E-009   19694.35  <-- SCF
------------------------------------------------------------------------ <-- SCF
 
Integrated Spin Density     =    0.606099E-02 hbar/2                        
Integrated |Spin Density|   =    0.306140E-01 hbar/2                        
 
Final energy, E             =  -108126.9698917     eV
Final free energy (E-TS)    =  -108127.3925151     eV
(energies not corrected for finite basis set)
 
NB est. 0K energy (E-0.5TS)      =  -108127.1812034     eV
 
 
 ******************************** Constrained Forces ********************************
 *                                                                                  *
 *                           Cartesian components (eV/A)                            *
 * -------------------------------------------------------------------------------- *
 *                         x                    y                    z              *
 *                                                                                  *
 * Zr              1      0.00014             -0.00111              0.00053         *
 * Zr              2      0.00109             -0.00191             -0.00067         *
 * Zr              3     -0.00014             -0.00139              0.00080         *
 * Zr              4      0.00112             -0.00270              0.00171         *
 * Zr              5      0.00198             -0.00117              0.00006         *
 * Zr              6     -0.00012             -0.00222             -0.00077         *
 * Zr              7     -0.00002             -0.00291              0.00119         *
 * Zr              8     -0.00063             -0.00318              0.00183         *
 * Zr              9      0.00089             -0.00423              0.00150         *
 * Zr             10      0.00181             -0.00480              0.00752         *
 * Zr             11      0.00062             -0.00327             -0.00554         *
 * Zr             12      0.00112              0.00128             -0.00393         *
 * Zr             13     -0.00143             -0.00542              0.00660         *
 * Zr             14     -0.00210             -0.01077             -0.00108         *
 * Zr             15     -0.00568             -0.00865              0.01946         *
 * Zr             16      0.02327             -0.05059              0.06255         *
 * Zr             17      0.00679             -0.01720              0.00839         *
 * Zr             18      0.06833             -0.06447             -0.00270         *
 * Zr             19     -0.03394             -0.01352              0.00209         *
 * Zr             20      0.05323              0.00450              0.00251         *
 * Zr             21     -0.18579             -0.01762              0.06718         *
 * Zr             22      0.00123             -0.00144             -0.00022         *
 * Zr             23      0.00068             -0.00227             -0.00031         *
 * Zr             24      0.00057             -0.00192             -0.00014         *
 * Zr             25     -0.00001             -0.00197             -0.00052         *
 * Zr             26      0.00385             -0.00177             -0.00061         *
 * Zr             27      0.00157             -0.00233              0.00045         *
 * Zr             28      0.00001             -0.00033             -0.00083         *
 * Zr             29      0.00119             -0.00083              0.00150         *
 * Zr             30      0.00024             -0.00299             -0.00039         *
 * Zr             31      0.00143             -0.00225              0.00049         *
 * Zr             32     -0.00061             -0.00197              0.00091         *
 * Zr             33     -0.00316             -0.00078             -0.00757         *
 * Zr             34      0.00653              0.00571              0.00040         *
 * Zr             35     -0.00568              0.00241             -0.00066         *
 * Zr             36      0.00828             -0.00077              0.01166         *
 * Zr             37      0.08072             -0.01072             -0.01354         *
 * Zr             38      0.00163             -0.00818              0.01677         *
 * Zr             39      0.01288             -0.00484             -0.01972         *
 * Zr             40      0.00763              0.03292              0.02654         *
 * Zr             41     -0.07130             -0.01368             -0.02050         *
 * Zr             42     -0.01206              0.03564             -0.00986         *
 * Zr             43      0.13981              0.02257             -0.10572         *
 * Zr             44     -0.02491             -0.00481              0.05137         *
 * Zr             45     -0.05086             -0.05785              0.06722         *
 * Zr             46      0.02305             -0.00019             -0.01282         *
 * Zr             47     -0.00482              0.00469             -0.00396         *
 * Zr             48     -0.00620             -0.00710             -0.00736         *
 * Zr             49     -0.00147             -0.00672             -0.00833         *
 * Zr             50      0.00258             -0.00017             -0.00154         *
 * Zr             51      0.00455              0.00244              0.00090         *
 * Zr             52      0.00339             -0.00023             -0.00134         *
 * Zr             53      0.00013             -0.00352             -0.00296         *
 * Zr             54      0.00045             -0.00197              0.00047         *
 * Zr             55      0.00215             -0.00166              0.00009         *
 * Zr             56      0.00315             -0.00161              0.00181         *
 * Zr             57      0.00360             -0.00184              0.00118         *
 * Zr             58     -0.00043             -0.00323             -0.00035         *
 * Zr             59      0.00061             -0.00166              0.00001         *
 * Zr             60      0.00025             -0.00149              0.00099         *
 * Zr             61      0.00046             -0.00222              0.00037         *
 * Zr             62      0.00120             -0.00274             -0.00109         *
 * Zr             63     -0.09973              0.10982              0.10529         *
 * Zr             64      0.00273             -0.00459              0.02715         *
 * Zr             65      0.04216              0.01210             -0.02463         *
 * Zr             66     -0.02119             -0.04461              0.06307         *
 * Zr             67      0.01238             -0.04244              0.04002         *
 * Zr             68      0.01984             -0.02175             -0.02230         *
 * Zr             69     -0.00329              0.00074             -0.02157         *
 * Zr             70      0.00455             -0.00197             -0.00309         *
 * Zr             71      0.00161             -0.00082             -0.00055         *
 * Zr             72      0.00191             -0.00136              0.00077         *
 * Zr             73      0.00134             -0.00181              0.00108         *
 * Zr             74      0.00049             -0.00127              0.00664         *
 * Zr             75     -0.00127             -0.00190              0.00104         *
 * Zr             76     -0.00051             -0.00222             -0.00023         *
 * Zr             77      0.00008             -0.00363              0.00105         *
 * Zr             78      0.00025             -0.00148             -0.00057         *
 * Zr             79     -0.00028             -0.00144              0.00051         *
 * Zr             80      0.00059             -0.00107              0.00019         *
 * Zr             81      0.00112             -0.00151              0.00082         *
 * Zr             82      0.00012             -0.00009              0.00034         *
 * Zr             83      0.00005             -0.00148              0.00029         *
 * I               1     -0.02582              0.27580             -0.30729         *
 *                                                                                  *
 ************************************************************************************
  
 +------------+-------------+-------------+-----------------+ <-- min LBFGS
 |    Step    |   lambda    |   F.delta'  |    enthalpy     | <-- min LBFGS
 +------------+-------------+-------------+-----------------+ <-- min LBFGS
 |  previous  |    0.000000 |    0.318619 |  -108127.333968 | <-- min LBFGS
 | trial step |    1.000000 |    0.312439 |  -108127.335701 | <-- min LBFGS
 |  line step |   51.553675 |    0.095838 |  -108127.392515 | <-- min LBFGS
 +------------+-------------+-------------+-----------------+ <-- min LBFGS
  

--------------------------------------------------------------------------------
 LBFGS: improving iteration         1 with quad minimization (lambda= 73.921926)
--------------------------------------------------------------------------------
 
                           -------------------------------
                                     Cell Contents
                           -------------------------------
 
            xxxxxxxxxxxxxxxxxxxxxxxxxxxxxxxxxxxxxxxxxxxxxxxxxxxxxxxxxxxxxxxxx
            x  Element         Atom        Fractional coordinates of atoms  x
            x                 Number           u          v          w      x
            x---------------------------------------------------------------x
            x  Zr                1         0.733707   0.167555   0.509062   x
            x  Zr                2         0.735337   0.273141   0.556174   x
            x  Zr                3         0.701900   0.727773   0.534570   x
            x  Zr                4         0.698202   0.916902   0.628076   x
            x  Zr                5         0.698830   0.372955   0.603095   x
            x  Zr                6         0.718216   0.825207   0.580274   x
            x  Zr                7         0.666431   0.019625   0.674796   x
            x  Zr                8         0.681327   0.465226   0.650987   x
            x  Zr                9         0.645141   0.109412   0.722702   x
            x  Zr               10         0.647869   0.561665   0.698581   x
            x  Zr               11         0.599913   0.750716   0.793745   x
            x  Zr               12         0.616541   0.206341   0.769922   x
            x  Zr               13         0.620276   0.660191   0.745526   x
            x  Zr               14         0.569279   0.853113   0.840582   x
            x  Zr               15         0.588325   0.305697   0.816717   x
            x  Zr               16         0.547960   0.950284   0.887970   x
            x  Zr               17         0.566834   0.397469   0.865363   x
            x  Zr               18         0.519908   0.594916   0.959006   x
            x  Zr               19         0.533620   0.041463   0.937428   x
            x  Zr               20         0.534745   0.499769   0.911832   x
            x  Zr               21         0.460014   0.165254   0.978533   x
            x  Zr               22         0.269648   0.332055   0.521719   x
            x  Zr               23         0.217233  -0.001608   0.589622   x
            x  Zr               24         0.201174   0.458932   0.562692   x
            x  Zr               25         0.230271   0.913021   0.540675   x
            x  Zr               26         0.189919   0.101824   0.635165   x
            x  Zr               27         0.199743   0.544271   0.612270   x
            x  Zr               28         0.165627   0.190335   0.684057   x
            x  Zr               29         0.169470   0.645523   0.659385   x
            x  Zr               30         0.118952   0.837500   0.754230   x
            x  Zr               31         0.134671   0.292299   0.730898   x
            x  Zr               32         0.136823   0.748413   0.706169   x
            x  Zr               33         0.098240   0.937285   0.800393   x
            x  Zr               34         0.112133   0.391598   0.777290   x
            x  Zr               35         0.066945   0.039754   0.847273   x
            x  Zr               36         0.085887   0.483973   0.825421   x
            x  Zr               37         0.034562   0.686727   0.918607   x
            x  Zr               38         0.050595   0.137589   0.895832   x
            x  Zr               39         0.063469   0.584097   0.871886   x
            x  Zr               40         0.031335   0.789714   0.962874   x
            x  Zr               41        -0.000313   0.227743   0.943697   x
            x  Zr               42         0.732295   0.753609   0.012091   x
            x  Zr               43         0.706016  -0.019702   0.037250   x
            x  Zr               44         0.731834   0.271442   0.056640   x
            x  Zr               45         0.713413   0.527114   0.081332   x
            x  Zr               46         0.698118   0.792574   0.105763   x
            x  Zr               47         0.696115   0.061473   0.127997   x
            x  Zr               48         0.678715   0.319468   0.152137   x
            x  Zr               49         0.665167   0.583353   0.175177   x
            x  Zr               50         0.647828   0.846926   0.198835   x
            x  Zr               51         0.646198   0.105749   0.222694   x
            x  Zr               52         0.622989   0.372346   0.245754   x
            x  Zr               53         0.616562   0.631823   0.270082   x
            x  Zr               54         0.602931   0.896259   0.293557   x
            x  Zr               55         0.599079   0.164447   0.316067   x
            x  Zr               56         0.582163   0.418413   0.341210   x
            x  Zr               57         0.579646   0.687285   0.363623   x
            x  Zr               58         0.554136   0.946514   0.388064   x
            x  Zr               59         0.532221   0.210711   0.412102   x
            x  Zr               60         0.537311   0.477298   0.434380   x
            x  Zr               61         0.533403   0.729696   0.459643   x
            x  Zr               62         0.463510   1.019034   0.478095   x
            x  Zr               63         0.280235   0.496713   0.020848   x
            x  Zr               64         0.229647   0.765782   0.040954   x
            x  Zr               65         0.205953   0.018188   0.065743   x
            x  Zr               66         0.207189   0.290242   0.087486   x
            x  Zr               67         0.200141   0.545525   0.112311   x
            x  Zr               68         0.184919   0.811944   0.136066   x
            x  Zr               69         0.169061   0.080467   0.159439   x
            x  Zr               70         0.165577   0.334312   0.183931   x
            x  Zr               71         0.137146   0.603174   0.206299   x
            x  Zr               72         0.134966   0.856177   0.231082   x
            x  Zr               73         0.130069   0.124116   0.253483   x
            x  Zr               74         0.114902   0.387487   0.277505   x
            x  Zr               75         0.100139   0.646523   0.302630   x
            x  Zr               76         0.098423   0.916445   0.324776   x
            x  Zr               77         0.079554   0.176163   0.348297   x
            x  Zr               78         0.065678   0.438154   0.372046   x
            x  Zr               79         0.063756   0.706641   0.394038   x
            x  Zr               80         0.034018   0.976325   0.418966   x
            x  Zr               81        -0.001571   0.228522   0.443851   x
            x  Zr               82         0.051422   0.518156   0.461660   x
            x  Zr               83         0.033387   0.730201   0.490569   x
            x  I                 1         0.014983   0.347191   0.990434   x
            xxxxxxxxxxxxxxxxxxxxxxxxxxxxxxxxxxxxxxxxxxxxxxxxxxxxxxxxxxxxxxxxx
 
 
------------------------------------------------------------------------ <-- SCF
SCF loop      Energy           Fermi           Energy gain       Timer   <-- SCF
[...]
 * Zr             42     -0.00016     -0.00565      0.00130 *
 * Zr             43      0.00201      0.00005     -0.00107 *
 * Zr             44      0.00402     -0.00012      0.00005 *
 * Zr             45     -0.00223      0.00403     -0.00195 *
 * Zr             46      0.00510     -0.00078     -0.00117 *
 * Zr             47      0.00136     -0.00493      0.00526 *
 * Zr             48      0.00003      0.00019      0.00027 *
 * Zr             49     -0.00028      0.00342     -0.00171 *
 * Zr             50      0.00039     -0.00012     -0.00067 *
 * Zr             51      0.00032     -0.00019     -0.00031 *
 * Zr             52     -0.00054     -0.00022     -0.00033 *
 * Zr             53      0.00007      0.00076      0.00084 *
 * Zr             54     -0.00028      0.00130     -0.00026 *
 * Zr             55     -0.00021     -0.00009     -0.00034 *
 * Zr             56     -0.00005     -0.00038      0.00074 *
 * Zr             57      0.00021     -0.00046      0.00022 *
 * Zr             58     -0.00061     -0.00102      0.00079 *
 * Zr             59      0.00012     -0.00038      0.00090 *
 * Zr             60     -0.00004     -0.00049      0.00037 *
 * Zr             61     -0.00031      0.00042      0.00033 *
 * Zr             62     -0.00132      0.00057     -0.00355 *
 * Zr             63     -0.00223     -0.00167     -0.00067 *
 * Zr             64     -0.00049     -0.00291      0.00206 *
 * Zr             65      0.00589     -0.00484     -0.00463 *
 * Zr             66     -0.00107     -0.00347     -0.00494 *
 * Zr             67      0.00170      0.00127     -0.00025 *
 * Zr             68      0.00210      0.00189     -0.00220 *
 * Zr             69     -0.00120     -0.00226      0.00504 *
 * Zr             70     -0.00123     -0.00339      0.00056 *
 * Zr             71     -0.00081      0.00078     -0.00132 *
 * Zr             72      0.00009      0.00157     -0.00237 *
 * Zr             73      0.00032      0.00064      0.00060 *
 * Zr             74     -0.00027     -0.00007      0.00061 *
 * Zr             75     -0.00021     -0.00008      0.00026 *
 * Zr             76      0.00011      0.00004     -0.00156 *
 * Zr             77     -0.00036      0.00030      0.00108 *
 * Zr             78     -0.00020      0.00051     -0.00084 *
 * Zr             79     -0.00028     -0.00025      0.00045 *
 * Zr             80     -0.00051      0.00049     -0.00039 *
 * Zr             81      0.00043      0.00017      0.00024 *
 * Zr             82      0.00003      0.00034     -0.00049 *
 * Zr             83      0.00029     -0.00074     -0.00033 *
 * I               1      0.00070      0.00539      0.00042 *
 *                                                          *
 ************************************************************
 
 ******************************** Constrained Forces ********************************
 *                                                                                  *
 *                           Cartesian components (eV/A)                            *
 * -------------------------------------------------------------------------------- *
 *                         x                    y                    z              *
 *                                                                                  *
 * Zr              1      0.00048              0.00110             -0.00060         *
 * Zr              2     -0.00001              0.00022             -0.00028         *
 * Zr              3      0.00081             -0.00117              0.00296         *
 * Zr              4     -0.00001             -0.00018              0.00074         *
 * Zr              5      0.00003              0.00071             -0.00113         *
 * Zr              6      0.00012             -0.00008              0.00034         *
 * Zr              7     -0.00012             -0.00023              0.00014         *
 * Zr              8     -0.00007              0.00020              0.00078         *
 * Zr              9      0.00043              0.00045              0.00057         *
 * Zr             10      0.00065             -0.00035              0.00011         *
 * Zr             11     -0.00048              0.00018              0.00069         *
 * Zr             12     -0.00283              0.00072              0.00087         *
 * Zr             13     -0.00329              0.00018             -0.00035         *
 * Zr             14      0.00049              0.00041             -0.00064         *
 * Zr             15     -0.00293              0.00052             -0.00052         *
 * Zr             16      0.00203             -0.00082             -0.00044         *
 * Zr             17      0.00064              0.00160              0.00043         *
 * Zr             18     -0.00222             -0.00124              0.00158         *
 * Zr             19     -0.00396              0.00188              0.00486         *
 * Zr             20      0.00163             -0.00114             -0.00097         *
 * Zr             21     -0.00820             -0.00093             -0.00224         *
 * Zr             22     -0.00043              0.00099             -0.00070         *
 * Zr             23     -0.00006              0.00031              0.00049         *
 * Zr             24     -0.00030              0.00048             -0.00042         *
 * Zr             25     -0.00047              0.00001              0.00069         *
 * Zr             26     -0.00061              0.00007              0.00160         *
 * Zr             27     -0.00021              0.00023              0.00006         *
 * Zr             28      0.00008              0.00069              0.00018         *
 * Zr             29     -0.00029              0.00020              0.00008         *
 * Zr             30      0.00048              0.00151             -0.00033         *
 * Zr             31     -0.00024             -0.00153             -0.00158         *
 * Zr             32     -0.00050              0.00102             -0.00163         *
 * Zr             33      0.00040             -0.00022             -0.00022         *
 * Zr             34      0.00348              0.00019             -0.00041         *
 * Zr             35     -0.00034             -0.00059              0.00043         *
 * Zr             36      0.00115              0.00130              0.00133         *
 * Zr             37      0.00197              0.00046             -0.00194         *
 * Zr             38     -0.00071             -0.00196             -0.00096         *
 * Zr             39      0.00152              0.00049              0.00140         *
 * Zr             40     -0.00251              0.00498              0.00083         *
 * Zr             41      0.00402             -0.00032              0.00317         *
 * Zr             42     -0.00016             -0.00565              0.00130         *
 * Zr             43      0.00201              0.00005             -0.00107         *
 * Zr             44      0.00402             -0.00012              0.00005         *
 * Zr             45     -0.00223              0.00403             -0.00195         *
 * Zr             46      0.00510             -0.00078             -0.00117         *
 * Zr             47      0.00136             -0.00493              0.00526         *
 * Zr             48      0.00003              0.00019              0.00027         *
 * Zr             49     -0.00028              0.00342             -0.00171         *
 * Zr             50      0.00039             -0.00012             -0.00067         *
 * Zr             51      0.00032             -0.00019             -0.00031         *
 * Zr             52     -0.00054             -0.00022             -0.00033         *
 * Zr             53      0.00007              0.00076              0.00084         *
 * Zr             54     -0.00028              0.00130             -0.00026         *
 * Zr             55     -0.00021             -0.00009             -0.00034         *
 * Zr             56     -0.00005             -0.00038              0.00074         *
 * Zr             57      0.00021             -0.00046              0.00022         *
 * Zr             58     -0.00061             -0.00102              0.00079         *
 * Zr             59      0.00012             -0.00038              0.00090         *
 * Zr             60     -0.00004             -0.00049              0.00037         *
 * Zr             61     -0.00031              0.00042              0.00033         *
 * Zr             62     -0.00132              0.00057             -0.00355         *
 * Zr             63     -0.00223             -0.00167             -0.00067         *
 * Zr             64     -0.00049             -0.00291              0.00206         *
 * Zr             65      0.00589             -0.00484             -0.00463         *
 * Zr             66     -0.00107             -0.00347             -0.00494         *
 * Zr             67      0.00170              0.00127             -0.00025         *
 * Zr             68      0.00210              0.00189             -0.00220         *
 * Zr             69     -0.00120             -0.00226              0.00504         *
 * Zr             70     -0.00123             -0.00339              0.00056         *
 * Zr             71     -0.00081              0.00078             -0.00132         *
 * Zr             72      0.00009              0.00157             -0.00237         *
 * Zr             73      0.00032              0.00064              0.00060         *
 * Zr             74     -0.00027             -0.00007              0.00061         *
 * Zr             75     -0.00021             -0.00008              0.00026         *
 * Zr             76      0.00011              0.00004             -0.00156         *
 * Zr             77     -0.00036              0.00030              0.00108         *
 * Zr             78     -0.00020              0.00051             -0.00084         *
 * Zr             79     -0.00028             -0.00025              0.00045         *
 * Zr             80     -0.00051              0.00049             -0.00039         *
 * Zr             81      0.00043              0.00017              0.00024         *
 * Zr             82      0.00003              0.00034             -0.00049         *
 * Zr             83      0.00029             -0.00074             -0.00033         *
 * I               1      0.00070              0.00539              0.00042         *
 *                                                                                  *
 ************************************************************************************
 
 Pseudo atomic calculation performed for Zr 4s2 4p6 4d2 5s2
 
 Converged in 30 iterations to a total energy of -1285.7947 eV
 
 
 Pseudo atomic calculation performed for I 5s2 5p5
 
 Converged in 19 iterations to a total energy of -794.3080 eV
 
Charge spilling parameter for spin component 1 = 0.08%
Charge spilling parameter for spin component 2 = 0.08%
 
     Atomic Populations (Mulliken)
     -----------------------------
Species          Ion     s      p      d      f     Total  Charge (e)  Spin (hbar/2)
==================================================================================
  Zr              1     2.44   6.72   2.85   0.00  12.02    -0.02       -0.00
  Zr              2     2.42   6.68   2.84   0.00  11.94     0.06       -0.00
  Zr              3     2.41   6.68   2.96   0.00  12.05    -0.05       -0.00
  Zr              4     2.42   6.73   2.85   0.00  12.01    -0.01       -0.00
  Zr              5     2.41   6.71   2.85   0.00  11.98     0.02       -0.00
  Zr              6     2.40   6.69   2.84   0.00  11.94     0.06       -0.00
  Zr              7     2.42   6.73   2.85   0.00  12.00     0.00       -0.00
  Zr              8     2.42   6.73   2.85   0.00  12.00     0.00       -0.00
  Zr              9     2.42   6.73   2.85   0.00  11.99     0.01       -0.00
  Zr             10     2.43   6.74   2.85   0.00  12.01    -0.01       -0.00
  Zr             11     2.41   6.73   2.85   0.00  11.99     0.01       -0.00
  Zr             12     2.42   6.73   2.85   0.00  12.00    -0.00        0.00
  Zr             13     2.42   6.73   2.85   0.00  12.00    -0.00        0.00
  Zr             14     2.42   6.73   2.84   0.00  11.99     0.01        0.00
  Zr             15     2.42   6.73   2.86   0.00  12.01    -0.01       -0.00
  Zr             16     2.41   6.72   2.84   0.00  11.98     0.02        0.00
  Zr             17     2.42   6.74   2.85   0.00  12.01    -0.01        0.00
  Zr             18     2.48   6.67   2.87   0.00  12.01    -0.01        0.00
  Zr             19     2.41   6.74   2.88   0.00  12.03    -0.03        0.00
  Zr             20     2.40   6.69   2.87   0.00  11.95     0.05        0.00
  Zr             21     2.43   6.70   2.89   0.00  12.02    -0.02        0.00
  Zr             22     2.45   6.68   2.98   0.00  12.12    -0.12       -0.00
  Zr             23     2.41   6.69   2.86   0.00  11.96     0.04       -0.00
  Zr             24     2.44   6.74   2.83   0.00  12.01    -0.01       -0.00
  Zr             25     2.42   6.70   2.86   0.00  11.98     0.02       -0.00
  Zr             26     2.42   6.73   2.85   0.00  12.00    -0.00       -0.00
  Zr             27     2.42   6.73   2.84   0.00  11.99     0.01       -0.00
  Zr             28     2.42   6.73   2.85   0.00  12.00    -0.00       -0.00
  Zr             29     2.42   6.74   2.84   0.00  12.00     0.00       -0.00
  Zr             30     2.42   6.73   2.86   0.00  12.01    -0.01       -0.00
  Zr             31     2.42   6.73   2.85   0.00  12.00    -0.00        0.00
  Zr             32     2.42   6.74   2.85   0.00  12.00    -0.00        0.00
  Zr             33     2.42   6.74   2.85   0.00  12.01    -0.01        0.00
  Zr             34     2.41   6.73   2.85   0.00  11.99     0.01        0.00
  Zr             35     2.42   6.74   2.85   0.00  12.01    -0.01       -0.00
  Zr             36     2.41   6.72   2.86   0.00  12.00     0.00       -0.00
  Zr             37     2.45   6.72   2.88   0.00  12.05    -0.05        0.00
  Zr             38     2.42   6.71   2.85   0.00  11.98     0.02        0.00
  Zr             39     2.42   6.73   2.86   0.00  12.01    -0.01        0.00
  Zr             40     2.48   6.67   3.05   0.00  12.20    -0.20        0.00
  Zr             41     2.43   6.68   2.90   0.00  12.00    -0.00        0.00
  Zr             42     2.40   6.71   2.90   0.00  12.01    -0.01       -0.00
  Zr             43     2.47   6.72   2.91   0.00  12.10    -0.10        0.00
  Zr             44     2.45   6.70   2.83   0.00  11.98     0.02        0.00
  Zr             45     2.41   6.72   2.86   0.00  11.98     0.02       -0.00
  Zr             46     2.42   6.73   2.82   0.00  11.97     0.03       -0.00
  Zr             47     2.42   6.74   2.85   0.00  12.01    -0.01       -0.00
  Zr             48     2.42   6.73   2.85   0.00  12.00    -0.00        0.00
  Zr             49     2.42   6.73   2.85   0.00  12.00    -0.00       -0.00
  Zr             50     2.43   6.74   2.85   0.00  12.01    -0.01        0.00
  Zr             51     2.42   6.73   2.85   0.00  12.00    -0.00        0.00
  Zr             52     2.42   6.73   2.85   0.00  11.99     0.01        0.00
  Zr             53     2.42   6.73   2.85   0.00  12.00     0.00        0.00
  Zr             54     2.42   6.74   2.85   0.00  12.01    -0.01       -0.00
  Zr             55     2.41   6.73   2.85   0.00  12.00     0.00       -0.00
  Zr             56     2.41   6.73   2.86   0.00  12.00     0.00       -0.00
  Zr             57     2.42   6.73   2.86   0.00  12.01    -0.01       -0.00
  Zr             58     2.41   6.72   2.84   0.00  11.98     0.02        0.00
  Zr             59     2.41   6.70   2.86   0.00  11.96     0.04       -0.00
  Zr             60     2.42   6.72   2.86   0.00  12.00     0.00       -0.00
  Zr             61     2.42   6.70   2.83   0.00  11.95     0.05       -0.00
  Zr             62     2.45   6.69   2.97   0.00  12.11    -0.11       -0.00
  Zr             63     2.47   6.66   2.95   0.00  12.08    -0.08        0.00
  Zr             64     2.42   6.74   2.97   0.00  12.13    -0.13        0.00
  Zr             65     2.47   6.73   2.82   0.00  12.02    -0.02        0.00
  Zr             66     2.40   6.72   2.86   0.00  11.99     0.01        0.00
  Zr             67     2.41   6.73   2.87   0.00  12.01    -0.01        0.00
  Zr             68     2.43   6.76   2.83   0.00  12.02    -0.02        0.00
  Zr             69     2.41   6.72   2.85   0.00  11.99     0.01       -0.00
  Zr             70     2.41   6.73   2.85   0.00  12.00     0.00       -0.00
  Zr             71     2.42   6.74   2.85   0.00  12.00    -0.00       -0.00
  Zr             72     2.42   6.73   2.85   0.00  12.00     0.00        0.00
  Zr             73     2.42   6.73   2.85   0.00  12.00     0.00        0.00
  Zr             74     2.42   6.73   2.86   0.00  12.01    -0.01       -0.00
  Zr             75     2.42   6.73   2.85   0.00  12.00     0.00        0.00
  Zr             76     2.41   6.73   2.86   0.00  12.00    -0.00       -0.00
  Zr             77     2.42   6.73   2.85   0.00  12.01    -0.01        0.00
  Zr             78     2.41   6.72   2.86   0.00  11.99     0.01       -0.00
  Zr             79     2.41   6.70   2.87   0.00  11.98     0.02        0.00
  Zr             80     2.40   6.69   2.85   0.00  11.94     0.06       -0.00
  Zr             81     2.42   6.70   2.84   0.00  11.96     0.04       -0.00
  Zr             82     2.42   6.68   2.99   0.00  12.09    -0.09       -0.00
  Zr             83     2.44   6.72   2.88   0.00  12.03    -0.03       -0.00
  I               1     1.65   4.79   0.00   0.00   6.44     0.56       -0.00
==================================================================================
 
                 Bond                   Population        Spin       Length (A)
================================================================================
             Zr 40 -- Zr 42                  0.32         0.00          2.80166
             Zr 20 -- Zr 41                  0.47         0.00          2.83620
             Zr 21 -- Zr 41                  0.55         0.00          2.86328
             Zr 42 -- Zr 43                  0.25         0.00          2.86948
             Zr 43 -- I 1                   -1.39         0.00          2.87432
             Zr 18 -- I 1                   -0.37         0.00          2.88501
             Zr 19 -- Zr 40                  0.55        -0.00          2.89583
             Zr 21 -- Zr 64                  0.29        -0.00          2.93257
             Zr 3  -- Zr 62                  0.28         0.00          2.93291
             Zr 3  -- Zr 83                  0.36         0.00          2.93882
             Zr 1  -- Zr 82                  0.34        -0.00          2.95046
             Zr 19 -- Zr 41                  0.41        -0.00          2.95740
             Zr 40 -- I 1                   -1.20         0.00          2.97257
             Zr 44 -- Zr 63                  0.55         0.00          2.98625
             Zr 62 -- Zr 81                  0.51        -0.00          2.98905
================================================================================
 

Writing analysis data to sim.castep_bin

Writing model to sim.check
 
 A BibTeX formatted list of references used in this run has been written to 
 sim.bib
 
Initialisation time =    101.52 s
Calculation time    = 533986.59 s
Finalisation time   =    258.49 s
Total time          = 534346.60 s
Peak Memory Use     = 3218076 kB
  
Overall parallel efficiency rating: Good (79%)                                  
  
Data was distributed by:-
G-vector (3-way); efficiency rating: Very good (80%)                            
k-point (5-way); efficiency rating: Excellent (98%)                             
